31
Properties=species:S:1:pos:R:3 Coordinates=T from=T ORCA-job=T flavin-opt=T E=T -872.845986916595=T pbc="F F F"
N       -1.45159361       2.45238364       0.01906357
C       -0.80144774       3.64659730       0.01396755
O       -1.36518524       4.73902957       0.04067704
N        0.59294246       3.61861763      -0.02934136
C        1.41560437       2.49990652      -0.04437119
O        2.63346151       2.63727160      -0.07261065
C        0.68048322       1.24464422      -0.02092172
N        1.37212653       0.08163644      -0.00578821
C        0.64165305      -1.05668452       0.00974375
C        1.30305107      -2.30080275       0.02314521
C        0.63124580      -3.50977004       0.01532348
C        1.39836995      -4.80813489       0.03095098
C       -0.77072828      -3.50898057      -0.01665175
C       -1.54510251      -4.80153435      -0.04860552
C       -1.44855261      -2.28967424      -0.02437109
C       -0.77648047      -1.07194663       0.01006041
N       -1.45105585       0.15178061       0.00313814
C       -0.73127818       1.34012400       0.00279467
C       -2.87299700       0.19589690       0.29343762
H        1.05636441       4.51355344      -0.03921697
H        2.38807356      -2.26911644       0.03644886
H        2.47353474      -4.62019101       0.05547682
H        1.18256497      -5.41515696      -0.85513893
H        1.14249709      -5.41748818       0.90470964
H       -1.28601393      -5.40942258      -0.92285369
H       -2.62008555      -4.61027867      -0.08283568
H       -1.34393859      -5.41729204       0.83551958
H       -2.53080205      -2.30702231      -0.07653873
H       -3.14012904      -0.62872267       0.95539417
H       -3.09069207       1.14799774       0.77149080
H       -3.47484033       0.14944241      -0.62089873
