
                                 *****************
                                 * O   R   C   A *
                                 *****************

                                            #,                                       
                                            ###                                      
                                            ####                                     
                                            #####                                    
                                            ######                                   
                                           ########,                                 
                                     ,,################,,,,,                         
                               ,,#################################,,                 
                          ,,##########################################,,             
                       ,#########################################, ''#####,          
                    ,#############################################,,   '####,        
                  ,##################################################,,,,####,       
                ,###########''''           ''''###############################       
              ,#####''   ,,,,##########,,,,          '''####'''          '####       
            ,##' ,,,,###########################,,,                        '##       
           ' ,,###''''                  '''############,,,                           
         ,,##''                                '''############,,,,        ,,,,,,###''
      ,#''                                            '''#######################'''  
     '                                                          ''''####''''         
             ,#######,   #######,   ,#######,      ##                                
            ,#'     '#,  ##    ##  ,#'     '#,    #''#        ,####,   ,####,        
            ##       ##  ##   ,#'  ##            #'  '#       #'       #'  '#        
            ##       ##  #######   ##           ,######,      #####,   #    #        
            '#,     ,#'  ##    ##  '#,     ,#' ,#      #,     #,   #   #,  ,#        
             '#######'   ##     ##  '#######'  #'      '#     '####' # '####'        



                #########################################################
                #                        -***-                          #
                #          Department of theory and spectroscopy        #
                #                                                       #
                #                      Frank Neese                      #
                #                                                       #
                #     Directorship, Architecture, Infrastructure        #
                #                    SHARK, DRIVERS                     #
                #        Core code/Algorithms in most modules           #
                #                                                       #
                #        Max Planck Institute fuer Kohlenforschung      #
                #                Kaiser Wilhelm Platz 1                 #
                #                 D-45470 Muelheim/Ruhr                 #
                #                      Germany                          #
                #                                                       #
                #                  All rights reserved                  #
                #                        -***-                          #
                #########################################################


                         Program Version 6.0.0  -   RELEASE  -


 With contributions from (in alphabetic order):
   Daniel Aravena         : Magnetic Suceptibility
   Michael Atanasov       : Ab Initio Ligand Field Theory (pilot matlab implementation)
   Alexander A. Auer      : GIAO ZORA, VPT2 properties, NMR spectrum
   Ute Becker             : All parallelization in ORCA, NUMFREQ, NUMCALC
   Giovanni Bistoni       : ED, misc. LED, open-shell LED, HFLD
   Martin Brehm           : Molecular dynamics
   Dmytro Bykov           : pre 5.0 version of the SCF Hessian
   Marcos Casanova-Páez   : Triplet and SCS-CIS(D). UHF-(DLPNO)-IP/EA/STEOM-CCSD. UHF-CVS-IP/STEOM-CCSD
   Vijay G. Chilkuri      : MRCI spin determinant printing, contributions to CSF-ICE
   Pauline Colinet        : FMM embedding
   Dipayan Datta          : RHF DLPNO-CCSD density
   Achintya Kumar Dutta   : EOM-CC, STEOM-CC
   Nicolas Foglia         : Exact transition moments, OPA infrastructure, MCD improvements
   Dmitry Ganyushin       : Spin-Orbit,Spin-Spin,Magnetic field MRCI
   Miquel Garcia          : C-PCM and meta-GGA Hessian, CCSD/C-PCM, Gaussian charge scheme
   Tiago L. C. Gouveia    : GS-ROHF, GS-ROCIS
   Yang Guo               : DLPNO-NEVPT2, F12-NEVPT2, CIM, IAO-localization
   Andreas Hansen         : Spin unrestricted coupled pair/coupled cluster methods
   Ingolf Harden          : AUTO-CI MPn and infrastructure 
   Benjamin Helmich-Paris : MC-RPA, TRAH-(SCF,CASSCF), AVAS, COSX integrals, SCF dyn. polar.
   Lee Huntington         : MR-EOM, pCC
   Robert Izsak           : Overlap fitted RIJCOSX, COSX-SCS-MP3, EOM
   Riya Kayal             : Wick's Theorem for AUTO-CI, AUTO-CI UHF-CCSDT
   Emily Kempfer          : AUTO-CI, RHF CISDT and CCSDT
   Christian Kollmar      : KDIIS, OOCD, Brueckner-CCSD(T), CCSD density, CASPT2, CASPT2-K, improved NEVPT2
   Axel Koslowski         : Symmetry handling
   Simone Kossmann        : Meta GGA functionals, TD-DFT gradient, OOMP2, (MP2 Hessian; deprecated post 5.0)
   Lucas Lang             : DCDCAS
   Marvin Lechner         : AUTO-CI (C++ implementation), FIC-MRCC
   Spencer Leger          : CASSCF response
   Dagmar Lenk            : GEPOL surface, SMD, ORCA-2-JSON
   Dimitrios Liakos       : Extrapolation schemes; Compound Job, initial MDCI parallelization
   Dimitrios Manganas     : Further ROCIS development; embedding schemes. LFT, Crystal Embedding
   Dimitrios Pantazis     : SARC Basis sets
   Anastasios Papadopoulos: AUTO-CI, single reference methods and gradients
   Taras Petrenko         : pre 6.0 DFT Hessian and TD-DFT gradient, (ASA, deprecated), ECA, 1-Electron XAS/XES, NRVS
   Peter Pinski           : DLPNO-MP2, DLPNO-MP2 Gradient
   Christoph Reimann      : Effective Core Potentials
   Marius Retegan         : Local ZFS, SOC
   Christoph Riplinger    : Optimizer, TS searches, QM/MM, DLPNO-CCSD(T), (RO)-DLPNO pert. Triples
   Michael Roemelt        : Original ROCIS implementation
   Masaaki Saitow         : Open-shell DLPNO-CCSD energy and density
   Barbara Sandhoefer     : DKH picture change effects
   Kantharuban Sivalingam : CASSCF convergence/infrastructure, NEVPT2 and variants, FIC-MRCI
   Bernardo de Souza      : ESD, SOC TD-DFT
   Georgi Stoychev        : AutoAux, RI-MP2 NMR, DLPNO-MP2 response, X2C
   Van Anh Tran           : RI-MP2 g-tensors
   Willem Van den Heuvel  : Paramagnetic NMR
   Zikuan Wang            : NOTCH, Electric field optimization 
   Frank Wennmohs         : Technical directorship and infrastructure
   Hang Xu                : AUTO-CI-Response properties 


 We gratefully acknowledge several colleagues who have allowed us to
 interface, adapt or use parts of their codes:
   Stefan Grimme, W. Hujo, H. Kruse, P. Pracht,  : VdW corrections, initial TS optimization,
                  C. Bannwarth, S. Ehlert,         DFT functionals, gCP, sTDA/sTD-DF
                  L. Wittmann, M. Mueller
   Ed Valeev, F. Pavosevic, A. Kumar             : LibInt (2-el integral package), F12 methods
   Garnet Chan, S. Sharma, J. Yang, R. Olivares  : DMRG
   Ulf Ekstrom                                   : XCFun DFT Library
   Mihaly Kallay                                 : mrcc  (arbitrary order and MRCC methods)
   Frank Weinhold                                : gennbo (NPA and NBO analysis)
   Simon Mueller                                 : openCOSMO-RS
   Christopher J. Cramer and Donald G. Truhlar   : smd solvation model
   Lars Goerigk                                  : TD-DFT with DH, B97 family of functionals
   V. Asgeirsson, H. Jonsson                     : NEB implementation
   FAccTs GmbH                                   : IRC, NEB, NEB-TS, DLPNO-Multilevel, CI-OPT
                                                   MM, QMMM, 2- and 3-layer-ONIOM, Crystal-QMMM,
                                                   LR-CPCM, SF, NACMEs, symmetry and pop. for TD-DFT,
                                                   nearIR, NL-DFT gradient (VV10), updates on ESD,
                                                   ML-optimized integration grids, MBIS, APM,
                                                   GOAT, DOCKER, SOLVATOR, interface openCOSMO-RS
   S Lehtola, MJT Oliveira, MAL Marques          : LibXC Library
   Liviu Ungur et al                             : ANISO software


 Your calculation uses the libint2 library for the computation of 2-el integrals
 For citations please refer to: http://libint.valeyev.net

 Your ORCA version has been built with support for libXC version: 6.2.2
 For citations please refer to: https://libxc.gitlab.io

 This ORCA versions uses:
   CBLAS   interface :  Fast vector & matrix operations
   LAPACKE interface :  Fast linear algebra routines
   SCALAPACK package :  Parallel linear algebra routines
   Shared memory     :  Shared parallel matrices
   BLAS/LAPACK       :  OpenBLAS 0.3.27  USE64BITINT DYNAMIC_ARCH NO_AFFINITY SkylakeX SINGLE_THREADED
        Core in use  :  SkylakeX
   Copyright (c) 2011-2014, The OpenBLAS Project


Your calculation utilizes the atom-pairwise dispersion correction
based on EEQ partial charges (D4)


Warning: RI is on but no J-basis has been assigned. Assigning Def2/J (nothing to worry about!)
================================================================================

----- Orbital basis set information -----
Your calculation utilizes the basis: EPR-III
   V. Barone, in Recent Advances in Density Functional Methods, Part 1 (ed. D. P. Chong), World Scientific, Singapore, 1995, p. 287.
   N. Rega, M. Cossi and V. Barone, J. Chem. Phys. 105, 11060 (1996).

----- AuxJ basis set information -----
Your calculation utilizes the auxiliary basis: def2/J
   F. Weigend, Phys. Chem. Chem. Phys. 8, 1057 (2006).

================================================================================
                                        WARNINGS
                       Please study these warnings very carefully!
================================================================================


================================================================================
                                       INPUT FILE
================================================================================
NAME = flavin-opt-rotated-A.inp
|  1> !UKS wB97X-D4 EPR-III TightSCF
|  2> 
|  3> # FAD Opt hydrogen position
|  4> 
|  5> %pal
|  6>    nprocs 24
|  7> end
|  8> 
|  9> *xyz -1 2
| 10> N       -1.45159361       2.45238364       0.01906357
| 11> C       -0.80144774       3.64659730       0.01396755
| 12> O       -1.36518524       4.73902957       0.04067704
| 13> N        0.59294246       3.61861763      -0.02934136
| 14> C        1.41560437       2.49990652      -0.04437119
| 15> O        2.63346151       2.63727160      -0.07261065
| 16> C        0.68048322       1.24464422      -0.02092172
| 17> N        1.37212653       0.08163644      -0.00578821
| 18> C        0.64165305      -1.05668452       0.00974375
| 19> C        1.30305107      -2.30080275       0.02314521
| 20> C        0.63124580      -3.50977004       0.01532348
| 21> C        1.39836995      -4.80813489       0.03095098
| 22> C       -0.77072828      -3.50898057      -0.01665175
| 23> C       -1.54510251      -4.80153435      -0.04860552
| 24> C       -1.44855261      -2.28967424      -0.02437109
| 25> C       -0.77648047      -1.07194663       0.01006041
| 26> N       -1.45105585       0.15178061       0.00313814
| 27> C       -0.73127818       1.34012400       0.00279467
| 28> C       -2.87299700       0.19589690       0.29343762
| 29> H        1.05636441       4.51355344      -0.03921697
| 30> H        2.38807356      -2.26911644       0.03644886
| 31> H        2.47353474      -4.62019101       0.05547682
| 32> H        1.18256497      -5.41515696      -0.85513893
| 33> H        1.14249709      -5.41748818       0.90470964
| 34> H       -1.28601393      -5.40942258      -0.92285369
| 35> H       -2.62008555      -4.61027867      -0.08283568
| 36> H       -1.34393859      -5.41729204       0.83551958
| 37> H       -2.53080205      -2.30702231      -0.07653873
| 38> H       -3.14012904      -0.62872267       0.95539417
| 39> H       -3.09069207       1.14799774       0.77149080
| 40> H       -3.47484033       0.14944241      -0.62089873
| 41> *
| 42> 
| 43> %EPRNMR
| 44>     GTENSOR   TRUE
| 45>     NUCLEI    = ALL N {AISO, ADIP, AORB}
| 46>     NUCLEI    = ALL H {AISO, ADIP, AORB}
| 47> END
| 48> 
| 49>                          ****END OF INPUT****
================================================================================

                       ****************************
                       * Single Point Calculation *
                       ****************************

---------------------------------
CARTESIAN COORDINATES (ANGSTROEM)
---------------------------------
  N     -1.451594    2.452384    0.019064
  C     -0.801448    3.646597    0.013968
  O     -1.365185    4.739030    0.040677
  N      0.592942    3.618618   -0.029341
  C      1.415604    2.499907   -0.044371
  O      2.633462    2.637272   -0.072611
  C      0.680483    1.244644   -0.020922
  N      1.372127    0.081636   -0.005788
  C      0.641653   -1.056685    0.009744
  C      1.303051   -2.300803    0.023145
  C      0.631246   -3.509770    0.015323
  C      1.398370   -4.808135    0.030951
  C     -0.770728   -3.508981   -0.016652
  C     -1.545103   -4.801534   -0.048606
  C     -1.448553   -2.289674   -0.024371
  C     -0.776480   -1.071947    0.010060
  N     -1.451056    0.151781    0.003138
  C     -0.731278    1.340124    0.002795
  C     -2.872997    0.195897    0.293438
  H      1.056364    4.513553   -0.039217
  H      2.388074   -2.269116    0.036449
  H      2.473535   -4.620191    0.055477
  H      1.182565   -5.415157   -0.855139
  H      1.142497   -5.417488    0.904710
  H     -1.286014   -5.409423   -0.922854
  H     -2.620086   -4.610279   -0.082836
  H     -1.343939   -5.417292    0.835520
  H     -2.530802   -2.307022   -0.076539
  H     -3.140129   -0.628723    0.955394
  H     -3.090692    1.147998    0.771491
  H     -3.474840    0.149442   -0.620899

----------------------------
CARTESIAN COORDINATES (A.U.)
----------------------------
  NO LB      ZA    FRAG     MASS         X           Y           Z
   0 N     7.0000    0    14.007   -2.743114    4.634333    0.036025
   1 C     6.0000    0    12.011   -1.514517    6.891070    0.026395
   2 O     8.0000    0    15.999   -2.579826    8.955468    0.076868
   3 N     7.0000    0    14.007    1.120499    6.838196   -0.055447
   4 C     6.0000    0    12.011    2.675105    4.724139   -0.083849
   5 O     8.0000    0    15.999    4.976521    4.983721   -0.137214
   6 C     6.0000    0    12.011    1.285927    2.352037   -0.039536
   7 N     7.0000    0    14.007    2.592943    0.154271   -0.010938
   8 C     6.0000    0    12.011    1.212549   -1.996844    0.018413
   9 C     6.0000    0    12.011    2.462410   -4.347887    0.043738
  10 C     6.0000    0    12.011    1.192882   -6.632504    0.028957
  11 C     6.0000    0    12.011    2.642536   -9.086058    0.058489
  12 C     6.0000    0    12.011   -1.456465   -6.631012   -0.031467
  13 C     6.0000    0    12.011   -2.919821   -9.073585   -0.091851
  14 C     6.0000    0    12.011   -2.737368   -4.326857   -0.046055
  15 C     6.0000    0    12.011   -1.467335   -2.025686    0.019011
  16 N     7.0000    0    14.007   -2.742098    0.286824    0.005930
  17 C     6.0000    0    12.011   -1.381915    2.532467    0.005281
  18 C     6.0000    0    12.011   -5.429178    0.370191    0.554517
  19 H     1.0000    0     1.008    1.996239    8.529380   -0.074109
  20 H     1.0000    0     1.008    4.512805   -4.288009    0.068878
  21 H     1.0000    0     1.008    4.674303   -8.730896    0.104836
  22 H     1.0000    0     1.008    2.234724  -10.233164   -1.615978
  23 H     1.0000    0     1.008    2.159007  -10.237569    1.709653
  24 H     1.0000    0     1.008   -2.430214  -10.222327   -1.743941
  25 H     1.0000    0     1.008   -4.951244   -8.712164   -0.156537
  26 H     1.0000    0     1.008   -2.539676  -10.237198    1.578903
  27 H     1.0000    0     1.008   -4.782523   -4.359640   -0.144637
  28 H     1.0000    0     1.008   -5.933984   -1.188114    1.805433
  29 H     1.0000    0     1.008   -5.840562    2.169401    1.457906
  30 H     1.0000    0     1.008   -6.566497    0.282405   -1.173329

--------------------------------
INTERNAL COORDINATES (ANGSTROEM)
--------------------------------
 N      0   0   0     0.000000000000     0.00000000     0.00000000
 C      1   0   0     1.359728608005     0.00000000     0.00000000
 O      2   1   0     1.229602224420   124.12497085     0.00000000
 N      2   1   3     1.395343166922   117.40790834   180.24301077
 C      4   2   1     1.388709134985   127.47954398   358.73696604
 O      5   4   2     1.225904827364   119.89996769   180.59980283
 C      5   4   2     1.454866462814   113.30038711     0.49312795
 N      7   5   4     1.353213430222   118.91108272   181.29508685
 C      8   7   5     1.352629792197   116.57575224   180.28601136
 C      9   8   7     1.409062493365   119.31884915   179.86814252
 C     10   9   8     1.383107157291   122.93777256   181.18772873
 C     11  10   9     1.508136255113   120.35725289   180.01859853
 C     11  10   9     1.402338888995   119.02769201     0.45515948
 C     13  11  10     1.507107085013   120.90939533   179.01160696
 C     13  11  10     1.395067502642   119.10186860   359.28102949
 C     15  13  11     1.391304072341   122.01450270   359.44799990
 N     16  15  13     1.397357584529   122.21998439   180.03133068
 C      1   2   3     1.325232244769   118.50229617   180.73218027
 C     17  16  15     1.451942378056   119.89381457    15.35692648
 H      4   2   1     1.007852933436   116.23127754   179.56992885
 H     10   9   8     1.085566586235   116.32728701     0.96236056
 H     12  11  10     1.091743442624   110.66848921     0.42855980
 H     12  11  10     1.095537727084   111.61927378   240.22415800
 H     12  11  10     1.095553078789   111.61118846   120.64992198
 H     14  13  11     1.095885420656   111.78785475   300.90089944
 H     14  13  11     1.092400556240   110.86289648   180.66325917
 H     14  13  11     1.096039072275   111.74133594    60.49680133
 H     15  13  11     1.083644899668   118.13305387   178.35919180
 H     19  17  16     1.090661925671   109.76979740    28.72184757
 H     19  17  16     1.087392291650   108.09334785   149.01266169
 H     19  17  16     1.095620543089   111.70465420   266.59300857

---------------------------
INTERNAL COORDINATES (A.U.)
---------------------------
 N      0   0   0     0.000000000000     0.00000000     0.00000000
 C      1   0   0     2.569514685588     0.00000000     0.00000000
 O      2   1   0     2.323611457815   124.12497085     0.00000000
 N      2   1   3     2.636816448320   117.40790834   180.24301077
 C      4   2   1     2.624279944797   127.47954398   358.73696604
 O      5   4   2     2.316624389969   119.89996769   180.59980283
 C      5   4   2     2.749299176146   113.30038711     0.49312795
 N      7   5   4     2.557202783864   118.91108272   181.29508685
 C      8   7   5     2.556099867836   116.57575224   180.28601136
 C      9   8   7     2.662742218040   119.31884915   179.86814252
 C     10   9   8     2.613693741147   122.93777256   181.18772873
 C     11  10   9     2.849964494800   120.35725289   180.01859853
 C     11  10   9     2.650036447148   119.02769201     0.45515948
 C     13  11  10     2.848019645168   120.90939533   179.01160696
 C     13  11  10     2.636295518327   119.10186860   359.28102949
 C     15  13  11     2.629183665734   122.01450270   359.44799990
 N     16  15  13     2.640623145918   122.21998439   180.03133068
 C      1   2   3     2.504326006456   118.50229617   180.73218027
 C     17  16  15     2.743773456760   119.89381457    15.35692648
 H      4   2   1     1.904566027463   116.23127754   179.56992885
 H     10   9   8     2.051423548121   116.32728701     0.96236056
 H     12  11  10     2.063096115064   110.66848921     0.42855980
 H     12  11  10     2.070266273567   111.61927378   240.22415800
 H     12  11  10     2.070295284085   111.61118846   120.64992198
 H     14  13  11     2.070923319198   111.78785475   300.90089944
 H     14  13  11     2.064337879837   110.86289648   180.66325917
 H     14  13  11     2.071213678677   111.74133594    60.49680133
 H     15  13  11     2.047792086793   118.13305387   178.35919180
 H     19  17  16     2.061052344214   109.76979740    28.72184757
 H     19  17  16     2.054873631355   108.09334785   149.01266169
 H     19  17  16     2.070422773136   111.70465420   266.59300857

---------------------
BASIS SET INFORMATION
---------------------
There are 4 groups of distinct atoms

 Group   1 Type N   : 12s8p2d1f contracted to 8s5p2d1f pattern {51111111/41111/11/1}
 Group   2 Type C   : 12s8p2d1f contracted to 8s5p2d1f pattern {51111111/41111/11/1}
 Group   3 Type O   : 12s8p2d1f contracted to 8s5p2d1f pattern {51111111/41111/11/1}
 Group   4 Type H   : 7s2p contracted to 5s2p pattern {31111/11}

Atom   0N    basis set group =>   1
Atom   1C    basis set group =>   2
Atom   2O    basis set group =>   3
Atom   3N    basis set group =>   1
Atom   4C    basis set group =>   2
Atom   5O    basis set group =>   3
Atom   6C    basis set group =>   2
Atom   7N    basis set group =>   1
Atom   8C    basis set group =>   2
Atom   9C    basis set group =>   2
Atom  10C    basis set group =>   2
Atom  11C    basis set group =>   2
Atom  12C    basis set group =>   2
Atom  13C    basis set group =>   2
Atom  14C    basis set group =>   2
Atom  15C    basis set group =>   2
Atom  16N    basis set group =>   1
Atom  17C    basis set group =>   2
Atom  18C    basis set group =>   2
Atom  19H    basis set group =>   4
Atom  20H    basis set group =>   4
Atom  21H    basis set group =>   4
Atom  22H    basis set group =>   4
Atom  23H    basis set group =>   4
Atom  24H    basis set group =>   4
Atom  25H    basis set group =>   4
Atom  26H    basis set group =>   4
Atom  27H    basis set group =>   4
Atom  28H    basis set group =>   4
Atom  29H    basis set group =>   4
Atom  30H    basis set group =>   4
---------------------------------
AUXILIARY/J BASIS SET INFORMATION
---------------------------------
There are 4 groups of distinct atoms

 Group   1 Type N   : 12s5p4d2f1g contracted to 6s4p3d1f1g pattern {711111/2111/211/2/1}
 Group   2 Type C   : 12s5p4d2f1g contracted to 6s4p3d1f1g pattern {711111/2111/211/2/1}
 Group   3 Type O   : 12s5p4d2f1g contracted to 6s4p3d1f1g pattern {711111/2111/211/2/1}
 Group   4 Type H   : 5s2p1d contracted to 3s1p1d pattern {311/2/1}

Atom   0N    basis set group =>   1
Atom   1C    basis set group =>   2
Atom   2O    basis set group =>   3
Atom   3N    basis set group =>   1
Atom   4C    basis set group =>   2
Atom   5O    basis set group =>   3
Atom   6C    basis set group =>   2
Atom   7N    basis set group =>   1
Atom   8C    basis set group =>   2
Atom   9C    basis set group =>   2
Atom  10C    basis set group =>   2
Atom  11C    basis set group =>   2
Atom  12C    basis set group =>   2
Atom  13C    basis set group =>   2
Atom  14C    basis set group =>   2
Atom  15C    basis set group =>   2
Atom  16N    basis set group =>   1
Atom  17C    basis set group =>   2
Atom  18C    basis set group =>   2
Atom  19H    basis set group =>   4
Atom  20H    basis set group =>   4
Atom  21H    basis set group =>   4
Atom  22H    basis set group =>   4
Atom  23H    basis set group =>   4
Atom  24H    basis set group =>   4
Atom  25H    basis set group =>   4
Atom  26H    basis set group =>   4
Atom  27H    basis set group =>   4
Atom  28H    basis set group =>   4
Atom  29H    basis set group =>   4
Atom  30H    basis set group =>   4


           ************************************************************
           *        Program running with 24 parallel MPI-processes    *
           *              working on a common directory               *
           ************************************************************
------------------------------------------------------------------------------
                             ORCA STARTUP CALCULATIONS
                           -- RI-GTO INTEGRALS CHOSEN --
------------------------------------------------------------------------------
------------------------------------------------------------------------------
                   ___                                                        
                  /   \      - P O W E R E D   B Y -                         
                 /     \                                                     
                 |  |  |   _    _      __       _____    __    __             
                 |  |  |  | |  | |    /  \     |  _  \  |  |  /  |          
                  \  \/   | |  | |   /    \    | | | |  |  | /  /          
                 / \  \   | |__| |  /  /\  \   | |_| |  |  |/  /          
                |  |  |   |  __  | /  /__\  \  |    /   |      \           
                |  |  |   | |  | | |   __   |  |    \   |  |\   \          
                \     /   | |  | | |  |  |  |  | |\  \  |  | \   \       
                 \___/    |_|  |_| |__|  |__|  |_| \__\ |__|  \__/        
                                                                              
                      - O R C A' S   B I G   F R I E N D -                    
                                      &                                       
                       - I N T E G R A L  F E E D E R -                       
                                                                              
 v1 FN, 2020, v2 2021, v3 2022-2024                                           
------------------------------------------------------------------------------


----------------------
SHARK INTEGRAL PACKAGE
----------------------

Number of atoms                             ...     31
Number of basis functions                   ...    892
Number of shells                            ...    388
Maximum angular momentum                    ...      3
Integral batch strategy                     ... SHARK/LIBINT Hybrid
RI-J (if used) integral strategy            ... SPLIT-RIJ (Revised 2003 algorithm where possible)
Printlevel                                  ...      1
Contraction scheme used                     ... SEGMENTED contraction
Prescreening option                         ... SCHWARTZ
   Thresh                                   ... 2.500e-11
   Tcut                                     ... 2.500e-12
   Tpresel                                  ... 2.500e-12 
Coulomb Range Separation                    ... NOT USED
Exchange Range Separation                   ... Long Range
   Mu parameter                             ... 3.000e-01
   Scaling (regular/separated)              ... 1.670e-01 8.330e-01
Multipole approximations                    ... NOT USED
Finite Nucleus Model                        ... NOT USED
CABS basis                                  ... NOT available
Auxiliary Coulomb fitting basis             ... AVAILABLE
   # of basis functions in Aux-J            ...   1063
   # of shells in Aux-J                     ...    345
   Maximum angular momentum in Aux-J        ...      4
Auxiliary J/K fitting basis                 ... NOT available
Auxiliary Correlation fitting basis         ... NOT available
Auxiliary 'external' fitting basis          ... NOT available

Checking pre-screening integrals            ... done (  0.0 sec) Dimension = 388
Check shell pair data                       ... done (  0.0 sec)
Shell pair information
Shell pair cut-off parameter TPreSel        ...   2.5e-12
Total number of shell pairs                 ...     75466
Shell pairs after pre-screening             ...     53599
Total number of primitive shell pairs       ...    149125
Primitive shell pairs kept                  ...     83229
          la=0 lb=0:  14375 shell pairs
          la=1 lb=0:  18806 shell pairs
          la=1 lb=1:   5941 shell pairs
          la=2 lb=0:   5469 shell pairs
          la=2 lb=1:   3546 shell pairs
          la=2 lb=2:    553 shell pairs
          la=3 lb=0:   2545 shell pairs
          la=3 lb=1:   1715 shell pairs
          la=3 lb=2:    516 shell pairs
          la=3 lb=3:    133 shell pairs

Calculating one electron integrals          ... done (  0.1 sec)
Calculating RI/J V-Matrix + Cholesky decomp.... done (  0.1 sec)
Calculating Nuclear repulsion               ... done (  0.0 sec) ENN=   1378.750159662496 Eh

Diagonalization of the overlap matrix:
Smallest eigenvalue                        ... 7.258e-09
Time for diagonalization                   ...    0.161 sec
Threshold for overlap eigenvalues          ... 1.000e-07
Number of eigenvalues below threshold      ... 4
Smallest eigenvalue above threshold        ... 1.050e-07

IMPORTANT:
Smallest eigenvalue of S below the DiffSThresh (1.000e-06) while
Thresh>1e-12 and/or TCut>1e-13! In order to avoid SCF convergence issues,
Thresh will be set to at least 1e-12 and TCut to at least 1e-13.
This can be turned off by adding %SCF DiffSThresh -1 END to the input.

Time for construction of square roots      ...    0.073 sec
Total time needed                          ...    0.244 sec

-------------------
DFT GRID GENERATION
-------------------

General Integration Accuracy     IntAcc      ... 4.388
Radial Grid Type                 RadialGrid  ... OptM3 with GC (2021)
Angular Grid (max. ang.)         AngularGrid ... 4 (Lebedev-302)
Angular grid pruning method      GridPruning ... 4 (adaptive)
Weight generation scheme         WeightScheme... mBecke (2022)
Basis function cutoff            BFCut       ... 1.0000e-11
Integration weight cutoff        WCut        ... 1.0000e-14
Partially contracted basis set               ... off
Rotationally invariant grid construction     ... off
Angular grids for H and He will be reduced by one unit
Diffuse basis detected: some atoms will have their outermost
                        angular grid increased by 1.

Total number of grid points                  ...   158624
Total number of batches                      ...     2494
Average number of points per batch           ...       63
Average number of grid points per atom       ...     5117

--------------------
COSX GRID GENERATION
--------------------

GRIDX 1
-------
General Integration Accuracy     IntAcc      ... 3.816
Radial Grid Type                 RadialGrid  ... OptM3 with GC (2021)
Angular Grid (max. ang.)         AngularGrid ... 1 (Lebedev-50)
Angular grid pruning method      GridPruning ... 4 (adaptive)
Weight generation scheme         WeightScheme... mBecke (2022)
Basis function cutoff            BFCut       ... 1.0000e-11
Integration weight cutoff        WCut        ... 1.0000e-14
Partially contracted basis set               ... on
Rotationally invariant grid construction     ... off
Angular grids for H and He will be reduced by one unit
Diffuse basis detected: some atoms will have their outermost
                        angular grid increased by 1.

Total number of grid points                  ...    19920
Total number of batches                      ...      174
Average number of points per batch           ...      114
Average number of grid points per atom       ...      643
UseSFitting                                  ... on

GRIDX 2
-------
General Integration Accuracy     IntAcc      ... 4.020
Radial Grid Type                 RadialGrid  ... OptM3 with GC (2021)
Angular Grid (max. ang.)         AngularGrid ... 2 (Lebedev-110)
Angular grid pruning method      GridPruning ... 4 (adaptive)
Weight generation scheme         WeightScheme... mBecke (2022)
Basis function cutoff            BFCut       ... 1.0000e-11
Integration weight cutoff        WCut        ... 1.0000e-14
Partially contracted basis set               ... on
Rotationally invariant grid construction     ... off
Angular grids for H and He will be reduced by one unit
Diffuse basis detected: some atoms will have their outermost
                        angular grid increased by 1.

Total number of grid points                  ...    48434
Total number of batches                      ...      395
Average number of points per batch           ...      122
Average number of grid points per atom       ...     1562
UseSFitting                                  ... on

GRIDX 3
-------
General Integration Accuracy     IntAcc      ... 4.338
Radial Grid Type                 RadialGrid  ... OptM3 with GC (2021)
Angular Grid (max. ang.)         AngularGrid ... 3 (Lebedev-194)
Angular grid pruning method      GridPruning ... 4 (adaptive)
Weight generation scheme         WeightScheme... mBecke (2022)
Basis function cutoff            BFCut       ... 1.0000e-11
Integration weight cutoff        WCut        ... 1.0000e-14
Partially contracted basis set               ... on
Rotationally invariant grid construction     ... off
Angular grids for H and He will be reduced by one unit
Diffuse basis detected: some atoms will have their outermost
                        angular grid increased by 1.

Total number of grid points                  ...   106728
Total number of batches                      ...      849
Average number of points per batch           ...      125
Average number of grid points per atom       ...     3443
UseSFitting                                  ... on
Initializing property integral containers    ... done (  0.0 sec)

SHARK setup successfully completed in   3.6 seconds

Maximum memory used throughout the entire STARTUP-calculation: 86.6 MB


           ************************************************************
           *        Program running with 24 parallel MPI-processes    *
           *              working on a common directory               *
           ************************************************************
-------------------------------------------------------------------------------
                                 ORCA GUESS
                   Start orbitals & Density for SCF / CASSCF
-------------------------------------------------------------------------------

------------
SCF SETTINGS
------------
Hamiltonian:
 Density Functional     Method          .... DFT(GTOs)
 Exchange Functional    Exchange        .... WB97X-V
 Correlation Functional Correlation     .... WB97X-V
 Gradients option       PostSCFGGA      .... off
 Hybrid DFT is turned on
   Fraction HF Exchange ScalHFX         ....  0.167000
   Scaling of DF-GGA-X  ScalDFX         ....  0.000000
   Scaling of DF-GGA-C  ScalDFC         ....  1.000000
   Scaling of DF-LDA-C  ScalLDAC        ....  1.000000
   Perturbative correction              ....  0.000000
 Long-range corrected/Screened/Range-Separated Hybrid DFT is turned on
   Amount of maximum screened exact exchange              ....  0.833000
   Range separation parameter mu (erf(mu*r12)/r12)        ....  0.300000
 RI-approximation to the Coulomb term is turned on
   Number of AuxJ basis functions       .... 1063
   RIJ-COSX (HFX calculated with COS-X)).... on


General Settings:
 Integral files         IntName         .... flavin-opt-rotated-A
 Hartree-Fock type      HFTyp           .... UHF
 Total Charge           Charge          ....   -1
 Multiplicity           Mult            ....    2
 Number of Electrons    NEL             ....  135
 Basis Dimension        Dim             ....  892
 Nuclear Repulsion      ENuc            ....   1378.7501596625 Eh

Convergence Acceleration:
 AO-DIIS                CNVDIIS         .... on
   Start iteration      DIISMaxIt       ....    12
   Startup error        DIISStart       ....  0.200000
   # of expansion vecs  DIISMaxEq       ....     5
   Bias factor          DIISBfac        ....   1.050
   Max. coefficient     DIISMaxC        ....  10.000
 MO-DIIS                CNVKDIIS        .... off
 Trust-Rad. Augm. Hess. CNVTRAH         .... auto
   Auto Start mean grad. ratio tolernc. ....  1.125000
   Auto Start start iteration           ....    50
   Auto Start num. interpolation iter.  ....    10
   Max. Number of Micro iterations      ....    24
   Max. Number of Macro iterations      .... Maxiter - #DIIS iter
   Number of Davidson start vectors     ....     2
   Converg. threshold    (grad. norm)   ....   1.000e-05
   Grad. Scal. Fac. for Micro threshold ....   0.100
   Minimum threshold for Micro iter.    ....   1.000e-02
   NR start threshold (gradient norm)   ....   1.000e-04
   Initial trust radius                 ....   0.400
   Minimum AH scaling param. (alpha)    ....   1.000
   Maximum AH scaling param. (alpha)    .... 1000.000
   Quad. conv. algorithm                .... NR
   White noise on init. David. guess    .... on
   Maximum white noise                  ....   0.010
   Pseudo random numbers                .... off
   Inactive MOs                         .... canonical
   Orbital update algorithm             .... Taylor
   Preconditioner                       .... Diag
   Full preconditioner red. dimension   ....   250
 SOSCF                  CNVSOSCF        .... on
   Start iteration      SOSCFMaxIt      ....   150
   Startup grad/error   SOSCFStart      ....  0.003300
   Hessian update       SOSCFHessUp     .... L-BFGS
 Level Shifting         CNVShift        .... on
   Level shift para.    LevelShift      ....    0.2500
   Turn off err/grad.   ShiftErr        ....    0.0010
 Zerner damping         CNVZerner       .... off
 Static damping         CNVDamp         .... on
   Fraction old density DampFac         ....    0.7000
   Max. Damping (<1)    DampMax         ....    0.9800
   Min. Damping (>=0)   DampMin         ....    0.0000
   Turn off err/grad.   DampErr         ....    0.1000

SCF Procedure:
 Maximum # iterations   MaxIter         ....   125
 SCF integral mode      SCFMode         .... Direct
   Integral package                     .... SHARK and LIBINT hybrid scheme
 Reset frequency        DirectResetFreq ....    20
 Integral Threshold     Thresh          ....  1.000e-12 Eh
 Primitive CutOff       TCut            ....  1.000e-13 Eh

Convergence Tolerance:
 Convergence Check Mode ConvCheckMode   .... Total+1el-Energy
 Convergence forced     ConvForced      .... 0
 Energy Change          TolE            ....  1.000e-08 Eh
 1-El. energy change                    ....  1.000e-05 Eh
 Orbital Gradient       TolG            ....  1.000e-05
 Orbital Rotation angle TolX            ....  1.000e-05
 DIIS Error             TolErr          ....  5.000e-07

------------------------------
INITIAL GUESS: MODEL POTENTIAL
------------------------------
Loading Hartree-Fock densities                     ... done
Calculating cut-offs                               ... done
Initializing the effective Hamiltonian             ... done
Setting up the integral package (SHARK)            ... done
Starting the Coulomb interaction                   ... done (   0.2 sec)
Making the grid                                    ... done (   0.2 sec)
Mapping shells                                     ... done
Starting the XC term evaluation                    ... done (   0.2 sec)
  promolecular density results
     # of electrons  =    133.984625586
     EX              =    -76.503441317
     EC              =     -5.646718000
     EX+EC           =    -82.150159316
Transforming the Hamiltonian                       ... done (   0.1 sec)
Diagonalizing the Hamiltonian                      ... done (   0.2 sec)
Back transforming the eigenvectors                 ... done (   0.2 sec)
Now organizing SCF variables                       ... done
                      ------------------
                      INITIAL GUESS DONE (   2.5 sec)
                      ------------------
             **** ENERGY FILE WAS UPDATED (flavin-opt-rotated-A.en.tmp) ****
Finished Guess after   4.2 sec
Maximum memory used throughout the entire GUESS-calculation: 78.3 MB


           ************************************************************
           *        Program running with 24 parallel MPI-processes    *
           *              working on a common directory               *
           ************************************************************

-------------------------------------------------------------------------------------------
                                      ORCA LEAN-SCF
                              memory conserving SCF solver
-------------------------------------------------------------------------------------------

----------------------------------------D-I-I-S--------------------------------------------
Iteration    Energy (Eh)           Delta-E    RMSDP     MaxDP     DIISErr   Damp  Time(sec)
-------------------------------------------------------------------------------------------
               ***  Starting incremental Fock matrix formation  ***
    1    -872.6052869846139401     0.00e+00  1.34e-03  3.04e-01  1.99e-01  0.700  22.3
Warning: op=0 Small HOMO/LUMO gap (   0.085) - skipping pre-diagonalization
         Will do a full diagonalization
    2    -872.6712199716334908    -6.59e-02  1.41e-03  3.07e-01  1.39e-01  0.700  40.1
                               ***Turning on AO-DIIS***
    3    -872.7078378960136433    -3.66e-02  1.19e-03  3.05e-01  9.64e-02  0.700  12.3
    4    -872.7311439603795407    -2.33e-02  3.23e-03  8.17e-01  6.60e-02  0.000  10.9
    5    -872.7895815725651119    -5.84e-02  4.39e-04  9.05e-02  5.93e-03  0.000  14.1
                              *** Initializing SOSCF ***
---------------------------------------S-O-S-C-F--------------------------------------
Iteration    Energy (Eh)           Delta-E    RMSDP     MaxDP     MaxGrad    Time(sec)
--------------------------------------------------------------------------------------
    6    -872.7908244326481508    -1.24e-03  3.35e-04  6.28e-02  3.00e-03    14.1
               *** Restarting incremental Fock matrix formation ***
    7    -872.7912307889469048    -4.06e-04  4.80e-04  8.09e-02  2.30e-03    34.7
    8    -872.7915647943691511    -3.34e-04  6.25e-04  1.10e-01  1.45e-03    29.3
    9    -872.7917942239596414    -2.29e-04  9.00e-05  1.04e-02  6.52e-04    28.7
   10    -872.7918198857223615    -2.57e-05  9.88e-05  1.71e-02  5.44e-04    20.1
   11    -872.7918374978985412    -1.76e-05  7.47e-05  1.54e-02  2.76e-04    17.5
   12    -872.7918442278059956    -6.73e-06  2.59e-05  4.91e-03  1.01e-04    15.1
   13    -872.7918461043359457    -1.88e-06  2.70e-05  3.90e-03  7.46e-05    13.6
   14    -872.7918465968377859    -4.93e-07  2.38e-05  5.69e-03  4.54e-05    16.3
   15    -872.7918467867261825    -1.90e-07  1.85e-05  5.97e-03  3.56e-05    14.9
   16    -872.7918468795755871    -9.28e-08  2.12e-05  6.63e-03  1.19e-05    13.7
   17    -872.7918469015748997    -2.20e-08  2.13e-05  6.23e-03  5.88e-06    23.0
   18    -872.7918469158453263    -1.43e-08  2.76e-05  6.77e-03  2.87e-06    20.4
   19    -872.7918469292508235    -1.34e-08  2.16e-05  5.27e-03  1.73e-06    23.1
                  *** Gradient check signals convergence ***

               *****************************************************
               *                     SUCCESS                       *
               *           SCF CONVERGED AFTER  19 CYCLES          *
               *****************************************************

Recomputing exchange energy using gridx3       ... done (   22.775 sec)
Old exchange energy                            :    -36.835505395 Eh
New exchange energy                            :    -36.835481142 Eh
Exchange energy change after final integration :      0.000024253 Eh
Total energy after final integration           :   -872.791822676 Eh
             **** ENERGY FILE WAS UPDATED (flavin-opt-rotated-A.en.tmp) ****

----------------
TOTAL SCF ENERGY
----------------

Total Energy       :       -872.79182267618114 Eh          -23749.87292 eV

Components:
Nuclear Repulsion  :       1378.75015966249612 Eh           37517.69921 eV
Electronic Energy  :      -2251.54200659174694 Eh          -61267.57278 eV
One Electron Energy:      -3940.51875860731616 Eh         -107226.96674 eV
Two Electron Energy:       1688.97675201556922 Eh           45959.39395 eV

Virial components:
Potential Energy   :      -1742.01621045761840 Eh          -47402.67099 eV
Kinetic Energy     :        869.22438778143714 Eh           23652.79808 eV
Virial Ratio       :          2.00410415877061

DFT components:
N(Alpha)           :       68.000056139825 electrons
N(Beta)            :       67.000079292764 electrons
N(Total)           :      135.000135432589 electrons
E(X)               :      -78.106385446812 Eh       
E(C)               :       -5.710551258902 Eh       
E(XC)              :      -83.816936705715 Eh       

---------------
SCF CONVERGENCE
---------------

  Last Energy change         ...    1.3405e-08  Tolerance :   1.0000e-08
  Last MAX-Density change    ...    5.2676e-03  Tolerance :   1.0000e-07
  Last RMS-Density change    ...    2.1609e-05  Tolerance :   5.0000e-09
  Last DIIS Error            ...    3.0015e-03  Tolerance :   5.0000e-07
  Last Orbital Gradient      ...    1.7296e-06  Tolerance :   1.0000e-05
  Last Orbital Rotation      ...    1.0244e-05  Tolerance :   1.0000e-05


----------------------
UHF SPIN CONTAMINATION
----------------------

Warning: in a DFT calculation there is little theoretical justification to 
         calculate <S**2> as in Hartree-Fock theory. We will do it anyways
         but you should keep in mind that the values have only limited relevance

Expectation value of <S**2>     :     0.783891
Ideal value S*(S+1) for S=0.5   :     0.750000
Deviation                       :     0.033891

----------------
ORBITAL ENERGIES
----------------
                 SPIN UP ORBITALS
  NO   OCC          E(Eh)            E(eV) 
   0   1.0000     -19.038025      -518.0510 
   1   1.0000     -19.030083      -517.8349 
   2   1.0000     -14.345799      -390.3690 
   3   1.0000     -14.308459      -389.3530 
   4   1.0000     -14.269013      -388.2796 
   5   1.0000     -14.250479      -387.7752 
   6   1.0000     -10.255803      -279.0746 
   7   1.0000     -10.239096      -278.6200 
   8   1.0000     -10.234454      -278.4936 
   9   1.0000     -10.208620      -277.7907 
  10   1.0000     -10.196085      -277.4496 
  11   1.0000     -10.187926      -277.2276 
  12   1.0000     -10.185367      -277.1579 
  13   1.0000     -10.181944      -277.0648 
  14   1.0000     -10.178081      -276.9597 
  15   1.0000     -10.175125      -276.8792 
  16   1.0000     -10.167552      -276.6732 
  17   1.0000     -10.164446      -276.5886 
  18   1.0000     -10.157433      -276.3978 
  19   1.0000      -1.050552       -28.5870 
  20   1.0000      -1.020761       -27.7763 
  21   1.0000      -1.015569       -27.6350 
  22   1.0000      -0.933595       -25.4044 
  23   1.0000      -0.927774       -25.2460 
  24   1.0000      -0.893006       -24.2999 
  25   1.0000      -0.877562       -23.8797 
  26   1.0000      -0.803458       -21.8632 
  27   1.0000      -0.798243       -21.7213 
  28   1.0000      -0.756809       -20.5938 
  29   1.0000      -0.734179       -19.9780 
  30   1.0000      -0.726242       -19.7620 
  31   1.0000      -0.678079       -18.4515 
  32   1.0000      -0.648983       -17.6597 
  33   1.0000      -0.616504       -16.7759 
  34   1.0000      -0.603573       -16.4240 
  35   1.0000      -0.575005       -15.6467 
  36   1.0000      -0.548877       -14.9357 
  37   1.0000      -0.530931       -14.4474 
  38   1.0000      -0.503245       -13.6940 
  39   1.0000      -0.488841       -13.3020 
  40   1.0000      -0.486592       -13.2408 
  41   1.0000      -0.466863       -12.7040 
  42   1.0000      -0.462646       -12.5892 
  43   1.0000      -0.450796       -12.2668 
  44   1.0000      -0.442916       -12.0524 
  45   1.0000      -0.438857       -11.9419 
  46   1.0000      -0.427454       -11.6316 
  47   1.0000      -0.423893       -11.5347 
  48   1.0000      -0.411973       -11.2104 
  49   1.0000      -0.402931       -10.9643 
  50   1.0000      -0.402201       -10.9444 
  51   1.0000      -0.398661       -10.8481 
  52   1.0000      -0.391159       -10.6440 
  53   1.0000      -0.386680       -10.5221 
  54   1.0000      -0.369694       -10.0599 
  55   1.0000      -0.351592        -9.5673 
  56   1.0000      -0.347997        -9.4695 
  57   1.0000      -0.343709        -9.3528 
  58   1.0000      -0.318226        -8.6594 
  59   1.0000      -0.274805        -7.4778 
  60   1.0000      -0.271818        -7.3965 
  61   1.0000      -0.250759        -6.8235 
  62   1.0000      -0.241652        -6.5757 
  63   1.0000      -0.225685        -6.1412 
  64   1.0000      -0.225652        -6.1403 
  65   1.0000      -0.221045        -6.0149 
  66   1.0000      -0.188168        -5.1203 
  67   1.0000      -0.098963        -2.6929 
  68   0.0000       0.098193         2.6720 
  69   0.0000       0.107650         2.9293 
  70   0.0000       0.120802         3.2872 
  71   0.0000       0.125388         3.4120 
  72   0.0000       0.135340         3.6828 
  73   0.0000       0.138918         3.7802 
  74   0.0000       0.141044         3.8380 
  75   0.0000       0.143936         3.9167 
  76   0.0000       0.147502         4.0137 
  77   0.0000       0.149604         4.0709 
  78   0.0000       0.156031         4.2458 

                 SPIN DOWN ORBITALS
  NO   OCC          E(Eh)            E(eV) 
   0   1.0000     -19.036651      -518.0136 
   1   1.0000     -19.029207      -517.8111 
   2   1.0000     -14.343567      -390.3083 
   3   1.0000     -14.308588      -389.3565 
   4   1.0000     -14.261993      -388.0886 
   5   1.0000     -14.250296      -387.7703 
   6   1.0000     -10.255654      -279.0705 
   7   1.0000     -10.238858      -278.6135 
   8   1.0000     -10.233977      -278.4807 
   9   1.0000     -10.207343      -277.7559 
  10   1.0000     -10.196177      -277.4521 
  11   1.0000     -10.189643      -277.2743 
  12   1.0000     -10.185517      -277.1620 
  13   1.0000     -10.181882      -277.0631 
  14   1.0000     -10.176367      -276.9130 
  15   1.0000     -10.175676      -276.8942 
  16   1.0000     -10.168342      -276.6947 
  17   1.0000     -10.163168      -276.5539 
  18   1.0000     -10.155410      -276.3427 
  19   1.0000      -1.048766       -28.5384 
  20   1.0000      -1.018454       -27.7135 
  21   1.0000      -1.011590       -27.5268 
  22   1.0000      -0.929939       -25.3049 
  23   1.0000      -0.919569       -25.0228 
  24   1.0000      -0.890026       -24.2188 
  25   1.0000      -0.875664       -23.8280 
  26   1.0000      -0.802100       -21.8263 
  27   1.0000      -0.795759       -21.6537 
  28   1.0000      -0.752772       -20.4840 
  29   1.0000      -0.732939       -19.9443 
  30   1.0000      -0.722568       -19.6621 
  31   1.0000      -0.672616       -18.3028 
  32   1.0000      -0.648108       -17.6359 
  33   1.0000      -0.614670       -16.7260 
  34   1.0000      -0.600634       -16.3441 
  35   1.0000      -0.573343       -15.6015 
  36   1.0000      -0.546810       -14.8795 
  37   1.0000      -0.529164       -14.3993 
  38   1.0000      -0.501583       -13.6488 
  39   1.0000      -0.487542       -13.2667 
  40   1.0000      -0.479847       -13.0573 
  41   1.0000      -0.465349       -12.6628 
  42   1.0000      -0.460318       -12.5259 
  43   1.0000      -0.449764       -12.2387 
  44   1.0000      -0.439660       -11.9638 
  45   1.0000      -0.435437       -11.8488 
  46   1.0000      -0.424932       -11.5630 
  47   1.0000      -0.423314       -11.5190 
  48   1.0000      -0.411476       -11.1968 
  49   1.0000      -0.401621       -10.9287 
  50   1.0000      -0.398609       -10.8467 
  51   1.0000      -0.392441       -10.6789 
  52   1.0000      -0.389628       -10.6023 
  53   1.0000      -0.385379       -10.4867 
  54   1.0000      -0.362323        -9.8593 
  55   1.0000      -0.349624        -9.5137 
  56   1.0000      -0.346829        -9.4377 
  57   1.0000      -0.334957        -9.1146 
  58   1.0000      -0.291155        -7.9227 
  59   1.0000      -0.270397        -7.3579 
  60   1.0000      -0.259758        -7.0684 
  61   1.0000      -0.249119        -6.7789 
  62   1.0000      -0.234561        -6.3827 
  63   1.0000      -0.219723        -5.9790 
  64   1.0000      -0.219218        -5.9652 
  65   1.0000      -0.206834        -5.6282 
  66   1.0000      -0.171172        -4.6578 
  67   0.0000       0.098495         2.6802 
  68   0.0000       0.107804         2.9335 
  69   0.0000       0.114229         3.1083 
  70   0.0000       0.121271         3.2999 
  71   0.0000       0.128664         3.5011 
  72   0.0000       0.135566         3.6889 
  73   0.0000       0.139151         3.7865 
  74   0.0000       0.141376         3.8470 
  75   0.0000       0.144190         3.9236 
  76   0.0000       0.147873         4.0238 
  77   0.0000       0.149911         4.0793 
*Only the first 10 virtual orbitals were printed.

                    ********************************
                    * MULLIKEN POPULATION ANALYSIS *
                    ********************************

--------------------------------------------
MULLIKEN ATOMIC CHARGES AND SPIN POPULATIONS
--------------------------------------------
   0 N :   -0.200556    0.011171
   1 C :    0.259483    0.012706
   2 O :   -0.562355    0.038910
   3 N :   -0.195578   -0.010905
   4 C :   -0.068756    0.043981
   5 O :   -0.492503    0.065344
   6 C :    0.361151    0.113481
   7 N :   -0.183464    0.382798
   8 C :    0.219641   -0.107534
   9 C :    0.254915    0.173706
  10 C :   -0.137199   -0.072753
  11 C :   -0.379048    0.006832
  12 C :   -0.453948    0.162382
  13 C :   -0.329453   -0.007308
  14 C :    0.155817   -0.069692
  15 C :    0.115226    0.116327
  16 N :    0.216617    0.075897
  17 C :   -0.485398    0.048546
  18 C :   -0.347191   -0.005051
  19 H :    0.259262    0.000814
  20 H :    0.088984   -0.007974
  21 H :    0.096685   -0.000051
  22 H :    0.082919   -0.003332
  23 H :    0.081845   -0.003272
  24 H :    0.086005    0.008143
  25 H :    0.083852    0.000059
  26 H :    0.085861    0.008751
  27 H :    0.023305    0.002894
  28 H :    0.092442    0.006981
  29 H :    0.164936    0.001996
  30 H :    0.106502    0.006153
Sum of atomic charges         :   -1.0000000
Sum of atomic spin populations:    1.0000000

-----------------------------------------------------
MULLIKEN REDUCED ORBITAL CHARGES AND SPIN POPULATIONS
-----------------------------------------------------
CHARGE
  0 N s       :     3.469963  s :     3.469963
      pz      :     1.332133  p :     3.666408
      px      :     1.440674
      py      :     0.893601
      dz2     :     0.006582  d :     0.059856
      dxz     :     0.009304
      dyz     :     0.009601
      dx2y2   :     0.012844
      dxy     :     0.021525
      f0      :     0.000827  f :     0.004329
      f+1     :     0.000283
      f-1     :     0.000524
      f+2     :     0.000318
      f-2     :     0.000439
      f+3     :     0.000826
      f-3     :     0.001113

  1 C s       :     2.962036  s :     2.962036
      pz      :     0.783589  p :     2.457475
      px      :     0.816451
      py      :     0.857435
      dz2     :     0.006998  d :     0.297435
      dxz     :     0.040788
      dyz     :     0.071944
      dx2y2   :     0.095948
      dxy     :     0.081758
      f0      :     0.002701  f :     0.023571
      f+1     :     0.001537
      f-1     :     0.001843
      f+2     :     0.002710
      f-2     :     0.002543
      f+3     :     0.003469
      f-3     :     0.008769

  2 O s       :     3.933581  s :     3.933581
      pz      :     1.509125  p :     4.598751
      px      :     1.709359
      py      :     1.380266
      dz2     :     0.002626  d :     0.028207
      dxz     :     0.002434
      dyz     :     0.007811
      dx2y2   :     0.007546
      dxy     :     0.007790
      f0      :     0.000190  f :     0.001816
      f+1     :     0.000060
      f-1     :     0.000167
      f+2     :     0.000151
      f-2     :     0.000289
      f+3     :     0.000484
      f-3     :     0.000475

  3 N s       :     3.333619  s :     3.333619
      pz      :     1.606788  p :     3.802284
      px      :     1.048560
      py      :     1.146936
      dz2     :     0.005790  d :     0.054906
      dxz     :     0.008086
      dyz     :     0.004258
      dx2y2   :     0.017360
      dxy     :     0.019411
      f0      :     0.000955  f :     0.004770
      f+1     :     0.000738
      f-1     :     0.000676
      f+2     :     0.000246
      f-2     :     0.000234
      f+3     :     0.000925
      f-3     :     0.000997

  4 C s       :     3.249870  s :     3.249870
      pz      :     0.776762  p :     2.531523
      px      :     0.813317
      py      :     0.941444
      dz2     :     0.006748  d :     0.267311
      dxz     :     0.072588
      dyz     :     0.029131
      dx2y2   :     0.047227
      dxy     :     0.111617
      f0      :     0.002542  f :     0.020053
      f+1     :     0.001847
      f-1     :     0.001073
      f+2     :     0.002573
      f-2     :     0.001924
      f+3     :     0.003520
      f-3     :     0.006575

  5 O s       :     3.901095  s :     3.901095
      pz      :     1.476154  p :     4.560711
      px      :     1.282784
      py      :     1.801772
      dz2     :     0.002544  d :     0.028864
      dxz     :     0.010433
      dyz     :     0.000110
      dx2y2   :     0.007964
      dxy     :     0.007813
      f0      :     0.000184  f :     0.001833
      f+1     :     0.000195
      f-1     :     0.000021
      f+2     :     0.000415
      f-2     :     0.000032
      f+3     :     0.000478
      f-3     :     0.000507

  6 C s       :     2.734243  s :     2.734243
      pz      :     1.121325  p :     2.731674
      px      :     0.863929
      py      :     0.746420
      dz2     :     0.008861  d :     0.161551
      dxz     :     0.018548
      dyz     :     0.030133
      dx2y2   :     0.051679
      dxy     :     0.052331
      f0      :     0.001945  f :     0.011381
      f+1     :     0.000960
      f-1     :     0.001215
      f+2     :     0.000699
      f-2     :     0.001027
      f+3     :     0.001928
      f-3     :     0.003608

  7 N s       :     3.554649  s :     3.554649
      pz      :     1.155420  p :     3.558617
      px      :     1.453353
      py      :     0.949844
      dz2     :     0.006065  d :     0.065919
      dxz     :     0.009617
      dyz     :     0.015659
      dx2y2   :     0.013052
      dxy     :     0.021527
      f0      :     0.000766  f :     0.004278
      f+1     :     0.000250
      f-1     :     0.000418
      f+2     :     0.000218
      f-2     :     0.000716
      f+3     :     0.000787
      f-3     :     0.001124

  8 C s       :     2.889714  s :     2.889714
      pz      :     0.937069  p :     2.698555
      px      :     0.935730
      py      :     0.825757
      dz2     :     0.007174  d :     0.179965
      dxz     :     0.023745
      dyz     :     0.039950
      dx2y2   :     0.058817
      dxy     :     0.050280
      f0      :     0.001975  f :     0.012124
      f+1     :     0.000904
      f-1     :     0.001096
      f+2     :     0.000945
      f-2     :     0.001263
      f+3     :     0.001874
      f-3     :     0.004068

  9 C s       :     2.970931  s :     2.970931
      pz      :     1.009822  p :     2.668771
      px      :     0.877140
      py      :     0.781810
      dz2     :     0.005105  d :     0.098544
      dxz     :     0.005322
      dyz     :     0.025943
      dx2y2   :     0.038247
      dxy     :     0.023926
      f0      :     0.001424  f :     0.006838
      f+1     :     0.000739
      f-1     :     0.000698
      f+2     :     0.000272
      f-2     :     0.000829
      f+3     :     0.001267
      f-3     :     0.001610

 10 C s       :     3.324762  s :     3.324762
      pz      :     0.967281  p :     2.663458
      px      :     1.029865
      py      :     0.666312
      dz2     :     0.005769  d :     0.140603
      dxz     :     0.023566
      dyz     :     0.025337
      dx2y2   :     0.046323
      dxy     :     0.039609
      f0      :     0.001536  f :     0.008376
      f+1     :     0.000665
      f-1     :     0.000720
      f+2     :     0.000947
      f-2     :     0.000733
      f+3     :     0.001178
      f-3     :     0.002596

 11 C s       :     3.270479  s :     3.270479
      pz      :     1.027940  p :     3.035522
      px      :     1.054091
      py      :     0.953491
      dz2     :     0.007596  d :     0.069950
      dxz     :     0.004328
      dyz     :     0.027489
      dx2y2   :     0.021348
      dxy     :     0.009188
      f0      :     0.000249  f :     0.003098
      f+1     :     0.000173
      f-1     :     0.000929
      f+2     :     0.000034
      f-2     :     0.000325
      f+3     :     0.000685
      f-3     :     0.000704

 12 C s       :     3.360007  s :     3.360007
      pz      :     0.979371  p :     2.946485
      px      :     1.108461
      py      :     0.858653
      dz2     :     0.005765  d :     0.139039
      dxz     :     0.023270
      dyz     :     0.025295
      dx2y2   :     0.045610
      dxy     :     0.039101
      f0      :     0.001525  f :     0.008418
      f+1     :     0.000678
      f-1     :     0.000734
      f+2     :     0.000949
      f-2     :     0.000763
      f+3     :     0.001187
      f-3     :     0.002581

 13 C s       :     3.218869  s :     3.218869
      pz      :     1.035648  p :     3.036439
      px      :     1.038511
      py      :     0.962280
      dz2     :     0.007697  d :     0.071025
      dxz     :     0.004395
      dyz     :     0.028384
      dx2y2   :     0.021555
      dxy     :     0.008994
      f0      :     0.000256  f :     0.003120
      f+1     :     0.000167
      f-1     :     0.000932
      f+2     :     0.000032
      f-2     :     0.000347
      f+3     :     0.000681
      f-3     :     0.000705

 14 C s       :     3.042584  s :     3.042584
      pz      :     1.065660  p :     2.696040
      px      :     0.779331
      py      :     0.851049
      dz2     :     0.005877  d :     0.098534
      dxz     :     0.004631
      dyz     :     0.028535
      dx2y2   :     0.035514
      dxy     :     0.023977
      f0      :     0.001474  f :     0.007024
      f+1     :     0.000782
      f-1     :     0.000743
      f+2     :     0.000242
      f-2     :     0.000942
      f+3     :     0.001251
      f-3     :     0.001589

 15 C s       :     2.899576  s :     2.899576
      pz      :     0.966446  p :     2.804880
      px      :     1.065405
      py      :     0.773029
      dz2     :     0.006573  d :     0.168643
      dxz     :     0.023245
      dyz     :     0.042497
      dx2y2   :     0.047751
      dxy     :     0.048577
      f0      :     0.002013  f :     0.011675
      f+1     :     0.000882
      f-1     :     0.001146
      f+2     :     0.001054
      f-2     :     0.001487
      f+3     :     0.001783
      f-3     :     0.003310

 16 N s       :     3.333358  s :     3.333358
      pz      :     1.512104  p :     3.356845
      px      :     0.950549
      py      :     0.894191
      dz2     :     0.005458  d :     0.087423
      dxz     :     0.014035
      dyz     :     0.014148
      dx2y2   :     0.026100
      dxy     :     0.027681
      f0      :     0.001019  f :     0.005757
      f+1     :     0.000707
      f-1     :     0.000668
      f+2     :     0.000539
      f-2     :     0.000520
      f+3     :     0.000769
      f-3     :     0.001535

 17 C s       :     3.499856  s :     3.499856
      pz      :     0.875443  p :     2.747733
      px      :     0.909195
      py      :     0.963095
      dz2     :     0.005747  d :     0.222136
      dxz     :     0.039361
      dyz     :     0.052811
      dx2y2   :     0.058796
      dxy     :     0.065422
      f0      :     0.002273  f :     0.015672
      f+1     :     0.001070
      f-1     :     0.001503
      f+2     :     0.001176
      f-2     :     0.002354
      f+3     :     0.002415
      f-3     :     0.004881

 18 C s       :     3.314139  s :     3.314139
      pz      :     1.045034  p :     2.936635
      px      :     0.771517
      py      :     1.120085
      dz2     :     0.006941  d :     0.090787
      dxz     :     0.035893
      dyz     :     0.012484
      dx2y2   :     0.020617
      dxy     :     0.014852
      f0      :     0.000561  f :     0.005630
      f+1     :     0.001248
      f-1     :     0.000106
      f+2     :     0.001787
      f-2     :    -0.000006
      f+3     :     0.000887
      f-3     :     0.001046

 19 H s       :     0.702253  s :     0.702253
      pz      :     0.018322  p :     0.038485
      px      :     0.008145
      py      :     0.012018

 20 H s       :     0.883024  s :     0.883024
      pz      :     0.009735  p :     0.027993
      px      :     0.012726
      py      :     0.005532

 21 H s       :     0.876863  s :     0.876863
      pz      :     0.007820  p :     0.026452
      px      :     0.011116
      py      :     0.007515

 22 H s       :     0.891751  s :     0.891751
      pz      :     0.009548  p :     0.025330
      px      :     0.007717
      py      :     0.008065

 23 H s       :     0.892851  s :     0.892851
      pz      :     0.009426  p :     0.025305
      px      :     0.007793
      py      :     0.008085

 24 H s       :     0.888657  s :     0.888657
      pz      :     0.009450  p :     0.025338
      px      :     0.007840
      py      :     0.008048

 25 H s       :     0.889606  s :     0.889606
      pz      :     0.007933  p :     0.026542
      px      :     0.010998
      py      :     0.007610

 26 H s       :     0.888876  s :     0.888876
      pz      :     0.009551  p :     0.025262
      px      :     0.007674
      py      :     0.008038

 27 H s       :     0.944467  s :     0.944467
      pz      :     0.011562  p :     0.032227
      px      :     0.013791
      py      :     0.006874

 28 H s       :     0.881186  s :     0.881186
      pz      :     0.008281  p :     0.026372
      px      :     0.006640
      py      :     0.011450

 29 H s       :     0.803744  s :     0.803744
      pz      :     0.007377  p :     0.031321
      px      :     0.007434
      py      :     0.016510

 30 H s       :     0.869345  s :     0.869345
      pz      :     0.010187  p :     0.024153
      px      :     0.006869
      py      :     0.007096


SPIN
  0 N s       :     0.001235  s :     0.001235
      pz      :     0.010662  p :     0.009391
      px      :    -0.000909
      py      :    -0.000363
      dz2     :     0.000004  d :     0.000469
      dxz     :    -0.000112
      dyz     :     0.000543
      dx2y2   :     0.000037
      dxy     :    -0.000003
      f0      :    -0.000004  f :     0.000076
      f+1     :    -0.000002
      f-1     :    -0.000006
      f+2     :     0.000013
      f-2     :     0.000074
      f+3     :     0.000001
      f-3     :     0.000000

  1 C s       :     0.001246  s :     0.001246
      pz      :     0.010172  p :     0.011262
      px      :     0.000601
      py      :     0.000489
      dz2     :    -0.000059  d :     0.000096
      dxz     :    -0.000156
      dyz     :     0.000413
      dx2y2   :    -0.000056
      dxy     :    -0.000046
      f0      :    -0.000016  f :     0.000103
      f+1     :    -0.000012
      f-1     :    -0.000011
      f+2     :     0.000021
      f-2     :     0.000125
      f+3     :     0.000001
      f-3     :    -0.000005

  2 O s       :     0.002706  s :     0.002706
      pz      :     0.036095  p :     0.036468
      px      :     0.000319
      py      :     0.000054
      dz2     :     0.000015  d :    -0.000239
      dxz     :    -0.000061
      dyz     :    -0.000188
      dx2y2   :     0.000002
      dxy     :    -0.000007
      f0      :    -0.000009  f :    -0.000024
      f+1     :    -0.000002
      f-1     :    -0.000005
      f+2     :    -0.000002
      f-2     :    -0.000005
      f+3     :    -0.000001
      f-3     :     0.000000

  3 N s       :    -0.002390  s :    -0.002390
      pz      :    -0.006466  p :    -0.009308
      px      :    -0.001412
      py      :    -0.001429
      dz2     :    -0.000010  d :     0.000730
      dxz     :     0.000282
      dyz     :     0.000505
      dx2y2   :    -0.000007
      dxy     :    -0.000040
      f0      :     0.000008  f :     0.000062
      f+1     :     0.000001
      f-1     :    -0.000000
      f+2     :     0.000046
      f-2     :     0.000008
      f+3     :    -0.000000
      f-3     :     0.000000

  4 C s       :     0.006990  s :     0.006990
      pz      :     0.032508  p :     0.029556
      px      :     0.000314
      py      :    -0.003266
      dz2     :    -0.000130  d :     0.007341
      dxz     :     0.006118
      dyz     :     0.002298
      dx2y2   :    -0.000529
      dxy     :    -0.000416
      f0      :    -0.000036  f :     0.000094
      f+1     :    -0.000030
      f-1     :    -0.000025
      f+2     :     0.000056
      f-2     :     0.000137
      f+3     :     0.000005
      f-3     :    -0.000014

  5 O s       :     0.004522  s :     0.004522
      pz      :     0.061055  p :     0.061171
      px      :    -0.000220
      py      :     0.000336
      dz2     :     0.000023  d :    -0.000309
      dxz     :    -0.000317
      dyz     :     0.000000
      dx2y2   :    -0.000023
      dxy     :     0.000008
      f0      :    -0.000015  f :    -0.000039
      f+1     :    -0.000010
      f-1     :    -0.000002
      f+2     :    -0.000011
      f-2     :     0.000000
      f+3     :    -0.000001
      f-3     :     0.000000

  6 C s       :    -0.004373  s :    -0.004373
      pz      :     0.094974  p :     0.101021
      px      :     0.003914
      py      :     0.002133
      dz2     :    -0.000073  d :     0.016534
      dxz     :     0.005558
      dyz     :     0.011648
      dx2y2   :     0.000602
      dxy     :    -0.001201
      f0      :    -0.000098  f :     0.000299
      f+1     :    -0.000070
      f-1     :    -0.000072
      f+2     :     0.000152
      f-2     :     0.000359
      f+3     :     0.000017
      f-3     :     0.000010

  7 N s       :     0.007573  s :     0.007573
      pz      :     0.369282  p :     0.376508
      px      :    -0.006248
      py      :     0.013474
      dz2     :    -0.000071  d :    -0.000854
      dxz     :    -0.001037
      dyz     :     0.000135
      dx2y2   :     0.000206
      dxy     :    -0.000087
      f0      :    -0.000218  f :    -0.000429
      f+1     :    -0.000082
      f-1     :    -0.000152
      f+2     :    -0.000022
      f-2     :     0.000037
      f+3     :    -0.000003
      f-3     :     0.000010

  8 C s       :    -0.011904  s :    -0.011904
      pz      :    -0.121271  p :    -0.114986
      px      :     0.002826
      py      :     0.003458
      dz2     :     0.000265  d :     0.018381
      dxz     :     0.005625
      dyz     :     0.013712
      dx2y2   :    -0.000521
      dxy     :    -0.000700
      f0      :     0.000199  f :     0.000976
      f+1     :     0.000045
      f-1     :     0.000035
      f+2     :     0.000101
      f-2     :     0.000553
      f+3     :     0.000039
      f-3     :     0.000004

  9 C s       :     0.009248  s :     0.009248
      pz      :     0.159584  p :     0.169151
      px      :     0.006409
      py      :     0.003158
      dz2     :    -0.000511  d :    -0.004268
      dxz     :    -0.000250
      dyz     :    -0.003796
      dx2y2   :     0.000305
      dxy     :    -0.000016
      f0      :    -0.000156  f :    -0.000425
      f+1     :    -0.000082
      f-1     :    -0.000073
      f+2     :    -0.000010
      f-2     :    -0.000082
      f+3     :    -0.000014
      f-3     :    -0.000009

 10 C s       :     0.000585  s :     0.000585
      pz      :    -0.078753  p :    -0.082571
      px      :    -0.000246
      py      :    -0.003573
      dz2     :     0.000224  d :     0.008781
      dxz     :     0.005726
      dyz     :     0.002600
      dx2y2   :     0.000194
      dxy     :     0.000037
      f0      :     0.000100  f :     0.000453
      f+1     :     0.000027
      f-1     :     0.000032
      f+2     :     0.000209
      f-2     :     0.000055
      f+3     :     0.000016
      f-3     :     0.000014

 11 C s       :     0.001431  s :     0.001431
      pz      :     0.003238  p :     0.007612
      px      :     0.001599
      py      :     0.002774
      dz2     :    -0.000006  d :    -0.002143
      dxz     :    -0.000078
      dyz     :    -0.001893
      dx2y2   :    -0.000135
      dxy     :    -0.000031
      f0      :    -0.000023  f :    -0.000068
      f+1     :    -0.000000
      f-1     :    -0.000003
      f+2     :    -0.000002
      f-2     :    -0.000032
      f+3     :    -0.000001
      f-3     :    -0.000006

 12 C s       :     0.000851  s :     0.000851
      pz      :     0.156438  p :     0.164290
      px      :     0.006042
      py      :     0.001810
      dz2     :    -0.000456  d :    -0.002365
      dxz     :    -0.001490
      dyz     :    -0.000897
      dx2y2   :     0.000385
      dxy     :     0.000092
      f0      :    -0.000172  f :    -0.000394
      f+1     :    -0.000086
      f-1     :    -0.000084
      f+2     :    -0.000011
      f-2     :    -0.000030
      f+3     :    -0.000008
      f-3     :    -0.000003

 13 C s       :     0.001913  s :     0.001913
      pz      :    -0.004426  p :    -0.013538
      px      :    -0.002481
      py      :    -0.006631
      dz2     :    -0.000037  d :     0.004160
      dxz     :     0.000556
      dyz     :     0.003612
      dx2y2   :     0.000053
      dxy     :    -0.000025
      f0      :     0.000052  f :     0.000158
      f+1     :    -0.000002
      f-1     :     0.000006
      f+2     :     0.000004
      f-2     :     0.000091
      f+3     :     0.000002
      f-3     :     0.000005

 14 C s       :    -0.005756  s :    -0.005756
      pz      :    -0.061915  p :    -0.071504
      px      :    -0.001559
      py      :    -0.008031
      dz2     :     0.000168  d :     0.007166
      dxz     :     0.000209
      dyz     :     0.006845
      dx2y2   :    -0.000105
      dxy     :     0.000048
      f0      :     0.000074  f :     0.000402
      f+1     :     0.000023
      f-1     :     0.000017
      f+2     :     0.000024
      f-2     :     0.000243
      f+3     :     0.000014
      f-3     :     0.000007

 15 C s       :     0.003971  s :     0.003971
      pz      :     0.123598  p :     0.113100
      px      :    -0.004148
      py      :    -0.006350
      dz2     :    -0.000223  d :    -0.000490
      dxz     :    -0.002702
      dyz     :     0.002466
      dx2y2   :     0.000021
      dxy     :    -0.000052
      f0      :    -0.000125  f :    -0.000255
      f+1     :    -0.000047
      f-1     :    -0.000052
      f+2     :    -0.000095
      f-2     :     0.000083
      f+3     :    -0.000011
      f-3     :    -0.000008

 16 N s       :     0.003389  s :     0.003389
      pz      :     0.064659  p :     0.071856
      px      :     0.004908
      py      :     0.002289
      dz2     :    -0.000165  d :     0.000789
      dxz     :     0.000442
      dyz     :     0.000336
      dx2y2   :     0.000171
      dxy     :     0.000005
      f0      :    -0.000089  f :    -0.000137
      f+1     :    -0.000036
      f-1     :    -0.000040
      f+2     :     0.000005
      f-2     :     0.000016
      f+3     :    -0.000003
      f-3     :     0.000008

 17 C s       :    -0.010368  s :    -0.010368
      pz      :     0.057817  p :     0.050140
      px      :    -0.003443
      py      :    -0.004234
      dz2     :    -0.000125  d :     0.008602
      dxz     :     0.010160
      dyz     :    -0.001647
      dx2y2   :     0.001003
      dxy     :    -0.000790
      f0      :    -0.000051  f :     0.000173
      f+1     :    -0.000045
      f-1     :    -0.000028
      f+2     :     0.000274
      f-2     :     0.000020
      f+3     :     0.000002
      f-3     :     0.000001

 18 C s       :    -0.000358  s :    -0.000358
      pz      :    -0.003721  p :    -0.008021
      px      :    -0.003526
      py      :    -0.000775
      dz2     :     0.000069  d :     0.003166
      dxz     :     0.002815
      dyz     :     0.000023
      dx2y2   :     0.000287
      dxy     :    -0.000028
      f0      :     0.000024  f :     0.000163
      f+1     :     0.000067
      f-1     :    -0.000000
      f+2     :     0.000066
      f-2     :    -0.000001
      f+3     :     0.000009
      f-3     :    -0.000001

 19 H s       :     0.000767  s :     0.000767
      pz      :     0.000068  p :     0.000046
      px      :    -0.000018
      py      :    -0.000004

 20 H s       :    -0.009620  s :    -0.009620
      pz      :     0.001614  p :     0.001645
      px      :     0.000011
      py      :     0.000021

 21 H s       :    -0.000114  s :    -0.000114
      pz      :     0.000034  p :     0.000064
      px      :     0.000008
      py      :     0.000022

 22 H s       :    -0.003414  s :    -0.003414
      pz      :     0.000008  p :     0.000083
      px      :     0.000004
      py      :     0.000070

 23 H s       :    -0.003356  s :    -0.003356
      pz      :     0.000009  p :     0.000084
      px      :     0.000003
      py      :     0.000072

 24 H s       :     0.008147  s :     0.008147
      pz      :    -0.000027  p :    -0.000004
      px      :     0.000080
      py      :    -0.000057

 25 H s       :     0.000140  s :     0.000140
      pz      :     0.000007  p :    -0.000081
      px      :    -0.000021
      py      :    -0.000067

 26 H s       :     0.008759  s :     0.008759
      pz      :    -0.000031  p :    -0.000008
      px      :     0.000084
      py      :    -0.000061

 27 H s       :     0.003603  s :     0.003603
      pz      :    -0.000693  p :    -0.000709
      px      :     0.000035
      py      :    -0.000051

 28 H s       :     0.007186  s :     0.007186
      pz      :    -0.000070  p :    -0.000205
      px      :    -0.000115
      py      :    -0.000020

 29 H s       :     0.002005  s :     0.002005
      pz      :    -0.000002  p :    -0.000009
      px      :     0.000025
      py      :    -0.000032

 30 H s       :     0.006153  s :     0.006153
      pz      :     0.000004  p :    -0.000000
      px      :    -0.000027
      py      :     0.000022



                     *******************************
                     * LOEWDIN POPULATION ANALYSIS *
                     *******************************

-------------------------------------------
LOEWDIN ATOMIC CHARGES AND SPIN POPULATIONS
-------------------------------------------
   0 N :    0.022202    0.012297
   1 C :   -0.457021    0.013767
   2 O :   -0.058853    0.033084
   3 N :    0.141381   -0.002067
   4 C :   -0.345787    0.045049
   5 O :   -0.022290    0.055215
   6 C :   -0.213711    0.128513
   7 N :    0.107578    0.325354
   8 C :   -0.196348   -0.028989
   9 C :   -0.078354    0.105128
[...]
 -----------------------------------------------------------

 Total HFC matrix (all values in MHz): 
 ----------------------------------------------------------------
                17.1546               0.8596               0.2097
                 0.8601              19.4331               0.8234
                 0.2100               0.8231              17.1718

 A(FC)          17.9194              17.9194              17.9194
 A(SD)          -1.0930              -0.9637               2.0566
 A(ORB+DIA)     -0.0001               0.0001               0.0011    A(PC) =    0.0004
 A(ORB)         -0.0000               0.0002               0.0009    A(PC) =    0.0004
 A(DIA)         -0.0001              -0.0001               0.0002    A(PC) =    0.0000
             ----------           ----------           ----------
 A(Tot)         16.8264              16.9559              19.9772    A(iso)=   17.9198
 Orientation: 
  X           0.7378106            0.6054223            0.2984952
  Y          -0.4121592            0.0538609            0.9095184
  Z           0.5345655           -0.7940799            0.2892695

Notes:  (1) The A matrix conforms to the "SAI" spin Hamiltonian convention.
        (2) Tensor is right-handed.

 -----------------------------------------------------------
 Nucleus  25H : A  : Isotope=    1 I=  0.5 P=533.5514 MHz/au**3 
                Q  : Isotope=    2 I=  1.0 Q=  0.0029 barn      
                HFC: iso  =YES dip=YES orb=YES gauge=YES    
                EFG: fgrad= NO rho= NO                      
 -----------------------------------------------------------

 Total HFC matrix (all values in MHz): 
 ----------------------------------------------------------------
                 1.4273               1.2467               0.0523
                 1.2454               0.4285               0.0314
                 0.0523               0.0318              -0.2295

 A(FC)           0.5415               0.5415               0.5415
 A(SD)          -0.7722              -0.9566               1.7288
 A(ORB+DIA)     -0.0002               0.0005               0.0015    A(PC) =    0.0006
 A(ORB)         -0.0002               0.0005               0.0013    A(PC) =    0.0005
 A(DIA)         -0.0000               0.0001               0.0002    A(PC) =    0.0001
             ----------           ----------           ----------
 A(Tot)         -0.2310              -0.4146               2.2718    A(iso)=    0.5421
 Orientation: 
  X          -0.0104014           -0.5606617           -0.8279796
  Y          -0.0280407            0.8278623           -0.5602300
  Z           0.9995527            0.0173900           -0.0243323

Notes:  (1) The A matrix conforms to the "SAI" spin Hamiltonian convention.
        (2) Tensor is right-handed.

 -----------------------------------------------------------
 Nucleus  26H : A  : Isotope=    1 I=  0.5 P=533.5514 MHz/au**3 
                Q  : Isotope=    2 I=  1.0 Q=  0.0029 barn      
                HFC: iso  =YES dip=YES orb=YES gauge=YES    
                EFG: fgrad= NO rho= NO                      
 -----------------------------------------------------------

 Total HFC matrix (all values in MHz): 
 ----------------------------------------------------------------
                17.8921               0.9245              -0.1959
                 0.9250              20.1260              -0.7386
                -0.1963              -0.7378              17.8293

 A(FC)          18.6155              18.6155              18.6155
 A(SD)          -1.0948              -0.9523               2.0470
 A(ORB+DIA)     -0.0003               0.0002               0.0011    A(PC) =    0.0003
 A(ORB)         -0.0003               0.0003               0.0008    A(PC) =    0.0003
 A(DIA)         -0.0001              -0.0001               0.0002    A(PC) =    0.0000
             ----------           ----------           ----------
 A(Tot)         17.5204              17.6635              20.6636    A(iso)=   18.6158
 Orientation: 
  X           0.7591410            0.5656647           -0.3220689
  Y          -0.4121588            0.0347544           -0.9104489
  Z          -0.5038156            0.8239026            0.2595272

Notes:  (1) The A matrix conforms to the "SAI" spin Hamiltonian convention.
        (2) Tensor is right-handed.

 -----------------------------------------------------------
 Nucleus  27H : A  : Isotope=    1 I=  0.5 P=533.5514 MHz/au**3 
                Q  : Isotope=    2 I=  1.0 Q=  0.0029 barn      
                HFC: iso  =YES dip=YES orb=YES gauge=YES    
                EFG: fgrad= NO rho= NO                      
 -----------------------------------------------------------

 Total HFC matrix (all values in MHz): 
 ----------------------------------------------------------------
                 2.7100               0.9353              -0.1070
                 0.9351               6.3743               0.0462
                -0.1072               0.0461               1.4545

 A(FC)           3.5115               3.5115               3.5115
 A(SD)          -2.0699              -1.0164               3.0863
 A(ORB+DIA)      0.0001               0.0027               0.0015    A(PC) =    0.0014
 A(ORB)         -0.0001               0.0026               0.0010    A(PC) =    0.0012
 A(DIA)          0.0003               0.0001               0.0004    A(PC) =    0.0003
             ----------           ----------           ----------
 A(Tot)          1.4418               2.4978               6.5992    A(iso)=    3.5130
 Orientation: 
  X           0.1055054           -0.9665659           -0.2337069
  Y          -0.0293152            0.2318933           -0.9722994
  Z           0.9939865            0.1094340           -0.0038691

Notes:  (1) The A matrix conforms to the "SAI" spin Hamiltonian convention.
        (2) Tensor is right-handed.

 -----------------------------------------------------------
 Nucleus  28H : A  : Isotope=    1 I=  0.5 P=533.5514 MHz/au**3 
                Q  : Isotope=    2 I=  1.0 Q=  0.0029 barn      
                HFC: iso  =YES dip=YES orb=YES gauge=YES    
                EFG: fgrad= NO rho= NO                      
 -----------------------------------------------------------

 Total HFC matrix (all values in MHz): 
 ----------------------------------------------------------------
                 6.6645               0.7500              -1.2525
                 0.7532               3.7290              -0.2913
                -1.2509              -0.2896               3.6844

 A(FC)           4.6912               4.6912               4.6912
 A(SD)          -1.4632              -1.1450               2.6082
 A(ORB+DIA)     -0.0003               0.0019               0.0027    A(PC) =    0.0014
 A(ORB)         -0.0004               0.0017               0.0023    A(PC) =    0.0012
 A(DIA)          0.0000               0.0002               0.0004    A(PC) =    0.0002
             ----------           ----------           ----------
 A(Tot)          3.2277               3.5481               7.3021    A(iso)=    4.6926
 Orientation: 
  X           0.3317575            0.2243827            0.9162911
  Y           0.0522468           -0.9741805            0.2196420
  Z           0.9419168           -0.0249946           -0.3349150

Notes:  (1) The A matrix conforms to the "SAI" spin Hamiltonian convention.
        (2) Tensor is right-handed.

 -----------------------------------------------------------
 Nucleus  29H : A  : Isotope=    1 I=  0.5 P=533.5514 MHz/au**3 
                Q  : Isotope=    2 I=  1.0 Q=  0.0029 barn      
                HFC: iso  =YES dip=YES orb=YES gauge=YES    
                EFG: fgrad= NO rho= NO                      
 -----------------------------------------------------------

 Total HFC matrix (all values in MHz): 
 ----------------------------------------------------------------
                 5.4615              -0.9311              -1.1311
                -0.9316               2.8217               0.3344
                -1.1304               0.3342               2.4102

 A(FC)           3.5637               3.5637               3.5637
 A(SD)          -1.5280              -1.0363               2.5643
 A(ORB+DIA)     -0.0001              -0.0002               0.0026    A(PC) =    0.0008
 A(ORB)         -0.0001              -0.0004               0.0022    A(PC) =    0.0006
 A(DIA)          0.0000               0.0002               0.0004    A(PC) =    0.0002
             ----------           ----------           ----------
 A(Tot)          2.0356               2.5272               6.1306    A(iso)=    3.5644
 Orientation: 
  X          -0.3012210            0.2873609            0.9092247
  Y           0.0484577            0.9568922           -0.2863725
  Z          -0.9523223           -0.0422025           -0.3021609

Notes:  (1) The A matrix conforms to the "SAI" spin Hamiltonian convention.
        (2) Tensor is right-handed.

 -----------------------------------------------------------
 Nucleus  30H : A  : Isotope=    1 I=  0.5 P=533.5514 MHz/au**3 
                Q  : Isotope=    2 I=  1.0 Q=  0.0029 barn      
                HFC: iso  =YES dip=YES orb=YES gauge=YES    
                EFG: fgrad= NO rho= NO                      
 -----------------------------------------------------------

 Total HFC matrix (all values in MHz): 
 ----------------------------------------------------------------
                14.6618              -0.0060               0.7215
                -0.0055              11.1261              -0.1548
                 0.7204              -0.1529              10.7410

 A(FC)          12.1757              12.1757              12.1757
 A(SD)          -1.6032              -1.0095               2.6126
 A(ORB+DIA)     -0.0007               0.0005               0.0021    A(PC) =    0.0007
 A(ORB)         -0.0007               0.0004               0.0018    A(PC) =    0.0005
 A(DIA)         -0.0000               0.0001               0.0004    A(PC) =    0.0001
             ----------           ----------           ----------
 A(Tot)         10.5718              11.1667              14.7904    A(iso)=   12.1763
 Orientation: 
  X          -0.1671991            0.0548026           -0.9843989
  Y           0.2631662            0.9647085            0.0090079
  Z           0.9501516           -0.2575544           -0.1757206

Notes:  (1) The A matrix conforms to the "SAI" spin Hamiltonian convention.
        (2) Tensor is right-handed.


Hyperfine and quadrupole coupling calculation done in  57.5 sec 
----------------------------------------------------------------------------
                           ORCA EULER ANGLE PROGRAM
----------------------------------------------------------------------------

Only g-tensor available        -->  using g-tensor as reference tensor

Reference tensor               ...  g

g-tensor ordering              ...  |g_min> --> |gx>
                                    |g_mid> --> |gy>
                                    |g_max> --> |gz>

A- and EFG-tensor ordering     ...  the axes |Ax>, |Qx>, |Ay>, etc. are assigned
                                    such that the Euler rotation is minimal. You
                                    can find the respective eigenvalues as Ax,
                                    EFGx, Ay, etc. in the tables below.
                                    The relation of |Ax>, |Ay>,  etc. to Amin, Amid, etc.
                                    (as printed in the ORCA EPR/NMR CALCULATION Output)
                                    is obtained in the detailed printout.

Euler rotation around          ...  z - y - z
   First rotation              -->  by alpha around z
   Second rotation             -->  by beta around y'
   Third rotation              -->  by gamma around z''
   Positive / Negative angle   -->  clockwise / counterclockwise rotation

Plot EFG-tensors                    (-)
Plot HFC-tensors                    (-)
Detailed Printout                   (-)

-------------------------------------------------------------------------
          Euler rotation of hyperfine tensor to g-tensor
-------------------------------------------------------------------------

-------------------------------------------------------------------
 Atom  |   Alpha    Beta    Gamma   |   Ax       Ay       Az 
       |          [degrees]         |           [MHz]         
-------------------------------------------------------------------
  0N      -87.8     21.6     90.0       1.23    -0.49    -0.65
  3N      103.4     35.2    -95.7      -1.85    -1.14    -0.84
  7N      110.6     14.2   -109.3      54.01    -4.36    -3.95
 16N     -102.2     40.6    106.4      17.85    -0.61    -0.32
 19H       98.0     41.8    -93.3      -1.46    -0.34     1.25
 20H       94.9     29.6    -93.0     -12.56    -5.42   -15.51
 21H      -93.4     34.0     91.8      -1.40     0.67    -1.26
 22H     -107.8     23.8    119.5      -8.68    -7.10    -8.22
 23H      -89.7     21.0     76.8      -8.61    -7.03    -8.15
 24H       23.4     22.3    -52.8      16.96    16.83    19.98
 25H      -97.5     19.3     98.7      -0.23    -0.41     2.27
 26H      168.2     25.7   -137.4      17.66    17.52    20.66
 27H      106.1     23.6    -97.8       1.44     2.50     6.60
 28H     -115.5     45.6    123.8       3.23     3.55     7.30
 29H      125.6     21.1   -106.6       2.04     6.13     2.53
 30H      106.7     38.3   -119.4      10.57    14.79    11.17
-------------------------------------------------------------------


Maximum memory used throughout the entire PROP-calculation: 210.4 MB

--------------------------------
SUGGESTED CITATIONS FOR THIS RUN
--------------------------------

Below you find a list of papers that are relevant to this ORCA run
We neither can nor want to force you to cite these papers, but we appreciate if you do
You receive ORCA, which is the product of decades of hard work by many enthusiastic individuals, for free
The only thing we kindly ask in return is that you cite our papers,
We deeply appreciate it, if you show your appreciation for ORCA by not just citing the generic ORCA reference.

Please note that relegating all ORCA citations to the supporting information does *not* help us.
SI sections are not indexed - citations you put there will not count into any citation statistics
But we need these citations in order to attract the funding resources that allow us to do what we are doing

Therefore, if you are a happy ORCA user, please consider citing a few of the papers listed below in the main body of your paper

In addition to the list printed below, the program has created the file flavin-opt-rotated-A.bibtex that contains the list in bibtex format
You can import this file easily into all common literature databanks and citation aid programs


List of essential papers. We consider these as the minimum necessary citations

  1. Neese,F.
     Software update: the ORCA program system, version 5.0
     WIRES Comput. Molec. Sci., 2022 12(1)e1606
     doi.org/10.1002/wcms.1606

List of papers to cite with high priority. The work reported in these papers was absolutely
necessary for this run to complete.
Our perspective: the developers of density functionals and basis sets usually get cited in chemistry papers
Good! But without the algorithms to do something with them, the functionals or basis sets would not do anything.
Hence, in our opinion, the algorithm design and method developments papers are equally worthy of getting cited

  1. Neese,F.
     Prediction of electron paramagnetic resonance g values using coupled perturbed Hartree-Fock and Kohn-Sham theory
     J. Chem. Phys., 2001 115(24)11080-11096
     doi.org/10.1063/1.1419058
  2. Neese,F.
     An improvement of the resolution of the identity approximation for the formation of the Coulomb matrix
     J. Comp. Chem., 2003 24(14)1740-1747
     doi.org/10.1002/jcc.10318
  3. Neese,F.
     Metal and ligand hyperfine couplings in transition metal complexes: The effect of spin-orbit coupling as studied by coupled perturbed Kohn-Sham theory
     J. Chem. Phys., 2003 118(9)3939-3948
     doi.org/10.1063/1.1540619
  4. Neese,F.
     Efficient and accurate approximations to the molecular spin-orbit coupling operator and their use in molecular g-tensor calculations
     J. Chem. Phys., 2005 122(3)Art. No. 034107
     doi.org/10.1063/1.1829047
  5. Neese,F.; Wennmohs,F.; Hansen,A.; Becker,U.
     Efficient, approximate and parallel Hartree-Fock and hybrid DFT calculations. A 'chain-of-spheres' algorithm for the Hartree-Fock exchange
     Chem. Phys., 2009 356(1-3)98-109
     doi.org/10.1016/j.chemphys.2008.10.036
  6. Helmich-Paris,B.; de Souza,B.; Neese,F.; Izsák,R.
     An improved chain of spheres for exchange algorithm
     J. Chem. Phys., 2021 155 104109
     doi.org/doi: 10.1063/5.0058766.
  7. Neese,F.
     The SHARK Integral Generation and Digestion System
     J. Comp. Chem., 2022  1-16
     doi.org/10.1002/jcc.26942
  8. Caldeweyher,E.; Bannwarth,C.; Grimme,S.
     Extension of the D3 dispersion coefficient model
     J. Chem. Phys., 2017 147 034112-XXXX
     doi.org/10.1063/1.4993215
  9. Caldeweyher,E.; Ehlert,S.; Hansen,A.; Neugebauer,H.; Spicher,S.; Bannwarth,C.; Grimme,S.
     A generally applicable atomic-charge dependent London dispersion correction
     J. Chem. Phys., 2019 150 154122-XXXX
     doi.org/10.1063/1.5090222
 10. Caldeweyher,E.; Mewes,J.; Ehlert,S.; Grimme,S.
     Extension and evaluation of the D4 London-dispersion model for periodic systems
     Phys. Chem. Chem. Phys., 2020 22(16)8499-8512
     doi.org/10.1039/D0CP00502A

List of suggested additional citations. These are papers that are important in the 'surrounding' of 
of this run, or papers that preceded the highly important papers. If you like your results we are grateful for a citation.

  1. Neese,F.
     Theoretical study of ligand superhyperfine structure. Application to Cu(II) complexes
     J. Phys. Chem. A, 2001 105(17)4290-4299
     doi.org/10.1021/jp003254f
  2. Izsak,R.; Neese,F.
     An overlap fitted chain of spheres exchange method
     J. Chem. Phys., 2011 135 144105
     doi.org/10.1063/1.3646921
  3. Izsak,R.; Hansen,A.; Neese,F.
     The resolution of identity and chain of spheres approximations for the LPNO-CCSD singles Fock term
     Molec. Phys., 2012 110 2413-2417
     doi.org/10.1080/00268976.2012.687466
  4. Neese,F.
     The ORCA program system
     WIRES Comput. Molec. Sci., 2012 2(1)73-78
     doi.org/10.1002/wcms.81
  5. Izsak,R.; Neese,F.; Klopper,W.
     Robust fitting techniques in the chain of spheres approximation to the Fock exchange: The role of the complementary space
     J. Chem. Phys., 2013 139 
     doi.org/10.1063/1.4819264
  6. Neese,F.
     Software update: the ORCA program system, version 4.0
     WIRES Comput. Molec. Sci., 2018 8(1)1-6
     doi.org/10.1002/wcms.1327
  7. Neese,F.; Wennmohs,F.; Becker,U.; Riplinger,C.
     The ORCA quantum chemistry program package
     J. Chem. Phys., 2020 152 Art. No. L224108
     doi.org/10.1063/5.0004608

List of optional additional citations

  1. Neese,F.
     Approximate second-order SCF convergence for spin unrestricted wavefunctions
     Chem. Phys. Lett., 2000 325(1-3)93-98
     doi.org/10.1016/s0009-2614(00)00662-x

Timings for individual modules:

Sum of individual times          ...      885.197 sec (=  14.753 min)
Startup calculation              ...        4.843 sec (=   0.081 min)   0.5 %
SCF iterations                   ...      426.150 sec (=   7.103 min)  48.1 %
Property integrals               ...       63.584 sec (=   1.060 min)   7.2 %
SCF Response                     ...      330.492 sec (=   5.508 min)  37.3 %
Property calculations            ...       60.127 sec (=   1.002 min)   6.8 %
                             ****ORCA TERMINATED NORMALLY****
TOTAL RUN TIME: 0 days 0 hours 14 minutes 50 seconds 387 msec
