
                                 *****************
                                 * O   R   C   A *
                                 *****************

                                            #,                                       
                                            ###                                      
                                            ####                                     
                                            #####                                    
                                            ######                                   
                                           ########,                                 
                                     ,,################,,,,,                         
                               ,,#################################,,                 
                          ,,##########################################,,             
                       ,#########################################, ''#####,          
                    ,#############################################,,   '####,        
                  ,##################################################,,,,####,       
                ,###########''''           ''''###############################       
              ,#####''   ,,,,##########,,,,          '''####'''          '####       
            ,##' ,,,,###########################,,,                        '##       
           ' ,,###''''                  '''############,,,                           
         ,,##''                                '''############,,,,        ,,,,,,###''
      ,#''                                            '''#######################'''  
     '                                                          ''''####''''         
             ,#######,   #######,   ,#######,      ##                                
            ,#'     '#,  ##    ##  ,#'     '#,    #''#        ,####,   ,####,        
            ##       ##  ##   ,#'  ##            #'  '#       #'       #'  '#        
            ##       ##  #######   ##           ,######,      #####,   #    #        
            '#,     ,#'  ##    ##  '#,     ,#' ,#      #,     #,   #   #,  ,#        
             '#######'   ##     ##  '#######'  #'      '#     '####' # '####'        



                #########################################################
                #                        -***-                          #
                #          Department of theory and spectroscopy        #
                #                                                       #
                #                      Frank Neese                      #
                #                                                       #
                #     Directorship, Architecture, Infrastructure        #
                #                    SHARK, DRIVERS                     #
                #        Core code/Algorithms in most modules           #
                #                                                       #
                #        Max Planck Institute fuer Kohlenforschung      #
                #                Kaiser Wilhelm Platz 1                 #
                #                 D-45470 Muelheim/Ruhr                 #
                #                      Germany                          #
                #                                                       #
                #                  All rights reserved                  #
                #                        -***-                          #
                #########################################################


                         Program Version 6.0.0  -   RELEASE  -


 With contributions from (in alphabetic order):
   Daniel Aravena         : Magnetic Suceptibility
   Michael Atanasov       : Ab Initio Ligand Field Theory (pilot matlab implementation)
   Alexander A. Auer      : GIAO ZORA, VPT2 properties, NMR spectrum
   Ute Becker             : All parallelization in ORCA, NUMFREQ, NUMCALC
   Giovanni Bistoni       : ED, misc. LED, open-shell LED, HFLD
   Martin Brehm           : Molecular dynamics
   Dmytro Bykov           : pre 5.0 version of the SCF Hessian
   Marcos Casanova-Páez   : Triplet and SCS-CIS(D). UHF-(DLPNO)-IP/EA/STEOM-CCSD. UHF-CVS-IP/STEOM-CCSD
   Vijay G. Chilkuri      : MRCI spin determinant printing, contributions to CSF-ICE
   Pauline Colinet        : FMM embedding
   Dipayan Datta          : RHF DLPNO-CCSD density
   Achintya Kumar Dutta   : EOM-CC, STEOM-CC
   Nicolas Foglia         : Exact transition moments, OPA infrastructure, MCD improvements
   Dmitry Ganyushin       : Spin-Orbit,Spin-Spin,Magnetic field MRCI
   Miquel Garcia          : C-PCM and meta-GGA Hessian, CCSD/C-PCM, Gaussian charge scheme
   Tiago L. C. Gouveia    : GS-ROHF, GS-ROCIS
   Yang Guo               : DLPNO-NEVPT2, F12-NEVPT2, CIM, IAO-localization
   Andreas Hansen         : Spin unrestricted coupled pair/coupled cluster methods
   Ingolf Harden          : AUTO-CI MPn and infrastructure 
   Benjamin Helmich-Paris : MC-RPA, TRAH-(SCF,CASSCF), AVAS, COSX integrals, SCF dyn. polar.
   Lee Huntington         : MR-EOM, pCC
   Robert Izsak           : Overlap fitted RIJCOSX, COSX-SCS-MP3, EOM
   Riya Kayal             : Wick's Theorem for AUTO-CI, AUTO-CI UHF-CCSDT
   Emily Kempfer          : AUTO-CI, RHF CISDT and CCSDT
   Christian Kollmar      : KDIIS, OOCD, Brueckner-CCSD(T), CCSD density, CASPT2, CASPT2-K, improved NEVPT2
   Axel Koslowski         : Symmetry handling
   Simone Kossmann        : Meta GGA functionals, TD-DFT gradient, OOMP2, (MP2 Hessian; deprecated post 5.0)
   Lucas Lang             : DCDCAS
   Marvin Lechner         : AUTO-CI (C++ implementation), FIC-MRCC
   Spencer Leger          : CASSCF response
   Dagmar Lenk            : GEPOL surface, SMD, ORCA-2-JSON
   Dimitrios Liakos       : Extrapolation schemes; Compound Job, initial MDCI parallelization
   Dimitrios Manganas     : Further ROCIS development; embedding schemes. LFT, Crystal Embedding
   Dimitrios Pantazis     : SARC Basis sets
   Anastasios Papadopoulos: AUTO-CI, single reference methods and gradients
   Taras Petrenko         : pre 6.0 DFT Hessian and TD-DFT gradient, (ASA, deprecated), ECA, 1-Electron XAS/XES, NRVS
   Peter Pinski           : DLPNO-MP2, DLPNO-MP2 Gradient
   Christoph Reimann      : Effective Core Potentials
   Marius Retegan         : Local ZFS, SOC
   Christoph Riplinger    : Optimizer, TS searches, QM/MM, DLPNO-CCSD(T), (RO)-DLPNO pert. Triples
   Michael Roemelt        : Original ROCIS implementation
   Masaaki Saitow         : Open-shell DLPNO-CCSD energy and density
   Barbara Sandhoefer     : DKH picture change effects
   Kantharuban Sivalingam : CASSCF convergence/infrastructure, NEVPT2 and variants, FIC-MRCI
   Bernardo de Souza      : ESD, SOC TD-DFT
   Georgi Stoychev        : AutoAux, RI-MP2 NMR, DLPNO-MP2 response, X2C
   Van Anh Tran           : RI-MP2 g-tensors
   Willem Van den Heuvel  : Paramagnetic NMR
   Zikuan Wang            : NOTCH, Electric field optimization 
   Frank Wennmohs         : Technical directorship and infrastructure
   Hang Xu                : AUTO-CI-Response properties 


 We gratefully acknowledge several colleagues who have allowed us to
 interface, adapt or use parts of their codes:
   Stefan Grimme, W. Hujo, H. Kruse, P. Pracht,  : VdW corrections, initial TS optimization,
                  C. Bannwarth, S. Ehlert,         DFT functionals, gCP, sTDA/sTD-DF
                  L. Wittmann, M. Mueller
   Ed Valeev, F. Pavosevic, A. Kumar             : LibInt (2-el integral package), F12 methods
   Garnet Chan, S. Sharma, J. Yang, R. Olivares  : DMRG
   Ulf Ekstrom                                   : XCFun DFT Library
   Mihaly Kallay                                 : mrcc  (arbitrary order and MRCC methods)
   Frank Weinhold                                : gennbo (NPA and NBO analysis)
   Simon Mueller                                 : openCOSMO-RS
   Christopher J. Cramer and Donald G. Truhlar   : smd solvation model
   Lars Goerigk                                  : TD-DFT with DH, B97 family of functionals
   V. Asgeirsson, H. Jonsson                     : NEB implementation
   FAccTs GmbH                                   : IRC, NEB, NEB-TS, DLPNO-Multilevel, CI-OPT
                                                   MM, QMMM, 2- and 3-layer-ONIOM, Crystal-QMMM,
                                                   LR-CPCM, SF, NACMEs, symmetry and pop. for TD-DFT,
                                                   nearIR, NL-DFT gradient (VV10), updates on ESD,
                                                   ML-optimized integration grids, MBIS, APM,
                                                   GOAT, DOCKER, SOLVATOR, interface openCOSMO-RS
   S Lehtola, MJT Oliveira, MAL Marques          : LibXC Library
   Liviu Ungur et al                             : ANISO software


 Your calculation uses the libint2 library for the computation of 2-el integrals
 For citations please refer to: http://libint.valeyev.net

 Your ORCA version has been built with support for libXC version: 6.2.2
 For citations please refer to: https://libxc.gitlab.io

 This ORCA versions uses:
   CBLAS   interface :  Fast vector & matrix operations
   LAPACKE interface :  Fast linear algebra routines
   SCALAPACK package :  Parallel linear algebra routines
   Shared memory     :  Shared parallel matrices
   BLAS/LAPACK       :  OpenBLAS 0.3.27  USE64BITINT DYNAMIC_ARCH NO_AFFINITY SkylakeX SINGLE_THREADED
        Core in use  :  SkylakeX
   Copyright (c) 2011-2014, The OpenBLAS Project


Your calculation utilizes the atom-pairwise dispersion correction
based on EEQ partial charges (D4)


Warning: RI is on but no J-basis has been assigned. Assigning Def2/J (nothing to worry about!)
================================================================================

----- Orbital basis set information -----
Your calculation utilizes the basis: EPR-III
   V. Barone, in Recent Advances in Density Functional Methods, Part 1 (ed. D. P. Chong), World Scientific, Singapore, 1995, p. 287.
   N. Rega, M. Cossi and V. Barone, J. Chem. Phys. 105, 11060 (1996).

----- AuxJ basis set information -----
Your calculation utilizes the auxiliary basis: def2/J
   F. Weigend, Phys. Chem. Chem. Phys. 8, 1057 (2006).

================================================================================
                                        WARNINGS
                       Please study these warnings very carefully!
================================================================================


================================================================================
                                       INPUT FILE
================================================================================
NAME = TrpC-dihedral-A.inp
|  1> !UKS wB97X-D4 EPR-III TightSCF
|  2> 
|  3> # TrpC Hyperfine hydrogen position
|  4> 
|  5> %pal
|  6>    nprocs 14
|  7> end
|  8> 
|  9> *xyz 1 2
| 10>   N      13.181582    -15.333543      6.352197
| 11>   C      13.057393    -15.417009      4.906690
| 12>   C      14.339789    -15.884658      4.223462
| 13>   O      15.412325    -15.903290      4.759524
| 14>   C      12.683308    -14.022670      4.341457
| 15>   C      11.487964    -13.534246      5.072070
| 16>   C      11.526815    -12.748787      6.267458
| 17>   C      10.136671    -13.897399      4.893679
| 18>   N      10.308540    -12.623138      6.762947
| 19>   C       9.392059    -13.324362      5.949308
| 20>   C       9.473547    -14.666448      3.920695
| 21>   C       8.039249    -13.481764      6.082145
| 22>   C       8.104698    -14.836832      4.040058
| 23>   C       7.401941    -14.255680      5.098489
| 24>   O      14.121478    -16.230861      2.945881
| 25>   H      14.968057    -16.494418      2.552238
| 26>   H      14.141516    -15.098952      6.591721
| 27>   H      12.998309    -16.232670      6.780472
| 28>   H      12.257938    -16.116027      4.649135
| 29>   H      12.487714    -14.092550      3.269710
| 30>   H      13.522812    -13.337913      4.489941
| 31>   H      12.389932    -12.304528      6.742645
| 32>   H      10.073294    -12.115691      7.603365
| 33>   H      10.019789    -15.108602      3.095109
| 34>   H       7.476692    -13.041273      6.896863
| 35>   H       7.566903    -15.423319      3.305363
| 36>   H       6.330204    -14.403824      5.165892
| 37> *
| 38> 
| 39> %eprnmr
| 40>     Nuclei = all N { aiso, adip, aorb }
| 41>     Nuclei = all H { aiso, adip, aorb }
| 42> end
| 43> 
| 44> 
| 45>                          ****END OF INPUT****
================================================================================

                       ****************************
                       * Single Point Calculation *
                       ****************************

---------------------------------
CARTESIAN COORDINATES (ANGSTROEM)
---------------------------------
  N     13.181582  -15.333543    6.352197
  C     13.057393  -15.417009    4.906690
  C     14.339789  -15.884658    4.223462
  O     15.412325  -15.903290    4.759524
  C     12.683308  -14.022670    4.341457
  C     11.487964  -13.534246    5.072070
  C     11.526815  -12.748787    6.267458
  C     10.136671  -13.897399    4.893679
  N     10.308540  -12.623138    6.762947
  C      9.392059  -13.324362    5.949308
  C      9.473547  -14.666448    3.920695
  C      8.039249  -13.481764    6.082145
  C      8.104698  -14.836832    4.040058
  C      7.401941  -14.255680    5.098489
  O     14.121478  -16.230861    2.945881
  H     14.968057  -16.494418    2.552238
  H     14.141516  -15.098952    6.591721
  H     12.998309  -16.232670    6.780472
  H     12.257938  -16.116027    4.649135
  H     12.487714  -14.092550    3.269710
  H     13.522812  -13.337913    4.489941
  H     12.389932  -12.304528    6.742645
  H     10.073294  -12.115691    7.603365
  H     10.019789  -15.108602    3.095109
  H      7.476692  -13.041273    6.896863
  H      7.566903  -15.423319    3.305363
  H      6.330204  -14.403824    5.165892

----------------------------
CARTESIAN COORDINATES (A.U.)
----------------------------
  NO LB      ZA    FRAG     MASS         X           Y           Z
   0 N     7.0000    0    14.007   24.909580  -28.976197   12.003913
   1 C     6.0000    0    12.011   24.674897  -29.133925    9.272300
   2 C     6.0000    0    12.011   27.098274  -30.017653    7.981187
   3 O     8.0000    0    15.999   29.125073  -30.052863    8.994197
   4 C     6.0000    0    12.011   23.967979  -26.499006    8.204165
   5 C     6.0000    0    12.011   21.709106  -25.576018    9.584823
   6 C     6.0000    0    12.011   21.782524  -24.091716   11.843779
   7 C     6.0000    0    12.011   19.155532  -26.262278    9.247713
   8 N     7.0000    0    14.007   19.480317  -23.854274   12.780118
   9 C     6.0000    0    12.011   17.748419  -25.179395   11.242563
  10 C     6.0000    0    12.011   17.902409  -27.715570    7.409040
  11 C     6.0000    0    12.011   15.191979  -25.476842   11.493588
  12 C     6.0000    0    12.011   15.315660  -28.037549    7.634603
  13 C     6.0000    0    12.011   13.987641  -26.939331    9.634748
  14 O     8.0000    0    15.999   26.685726  -30.671882    5.566908
  15 H     1.0000    0     1.008   28.285528  -31.169933    4.823031
  16 H     1.0000    0     1.008   26.723592  -28.532884   12.456547
  17 H     1.0000    0     1.008   24.563244  -30.675301   12.813235
  18 H     1.0000    0     1.008   23.164146  -30.454877    8.785592
  19 H     1.0000    0     1.008   23.598359  -26.631060    6.178856
  20 H     1.0000    0     1.008   25.554411  -25.205003    8.484759
  21 H     1.0000    0     1.008   23.413578  -23.252188   12.741752
  22 H     1.0000    0     1.008   19.035767  -22.895338   14.368278
  23 H     1.0000    0     1.008   18.934657  -28.551120    5.848908
  24 H     1.0000    0     1.008   14.128900  -24.644434   13.033182
  25 H     1.0000    0     1.008   14.299374  -29.145849    6.246231
  26 H     1.0000    0     1.008   11.962352  -27.219283    9.762121

--------------------------------
INTERNAL COORDINATES (ANGSTROEM)
--------------------------------
 N      0   0   0     0.000000000000     0.00000000     0.00000000
 C      1   0   0     1.453230872204     0.00000000     0.00000000
 C      2   1   0     1.526445409440   113.01779271     0.00000000
 O      3   2   1     1.199184343862   123.78430541   344.63357730
 C      2   1   3     1.550357758208   109.36649994   239.19104894
 C      5   2   1     1.483644377161   108.11600575   307.27073851
 C      6   5   2     1.430876553524   124.76674712    90.38536536
 C      6   5   2     1.410565922649   128.66697427   281.54818121
 N      7   6   5     1.321170312998   109.90639112   188.05817291
 C      9   7   6     1.411970588879   109.58367556     0.80267817
 C      8   6   5     1.406366832670   132.84219078   351.14244493
 C     10   9   7     1.368399047892   130.00627969   179.23652532
 C     11   8   6     1.384567014639   118.28205866   179.89390047
 C     13  11   8     1.397097430358   120.75875947     0.17801076
 O      3   2   1     1.341539944053   111.62945133   166.47830211
 H     15   3   2     0.970109842718   108.33222297   178.38546394
 H      1   2   3     1.016797899394   109.16223140    30.98045610
 H      1   2   3     1.012639042445   110.74556134   274.61002337
 H      2   1   3     1.092743812325   109.49376109   120.75250523
 H      5   2   1     1.091687619809   110.09541913   185.72249268
 H      5   2   1     1.093483705101   109.17440778    67.18245593
 H      7   6   5     1.080805116447   127.92450163     7.76436961
 H      9   7   6     1.009527390935   125.09237470   179.87072285
 H     11   8   6     1.084192199601   120.81510615   359.49065937
 H     12  10   9     1.083636525249   122.64626773     0.32201581
 H     13  11   8     1.083036105686   119.93934105   179.95049582
 H     14  13  11     1.084024910375   119.18093767   179.86446397

---------------------------
INTERNAL COORDINATES (A.U.)
---------------------------
 N      0   0   0     0.000000000000     0.00000000     0.00000000
 C      1   0   0     2.746208357825     0.00000000     0.00000000
 C      2   1   0     2.884563782223   113.01779271     0.00000000
 O      3   2   1     2.266129993985   123.78430541   344.63357730
 C      2   1   3     2.929751572613   109.36649994   239.19104894
 C      5   2   1     2.803681552966   108.11600575   307.27073851
 C      6   5   2     2.703964817610   124.76674712    90.38536536
 C      6   5   2     2.665583287649   128.66697427   281.54818121
 N      7   6   5     2.496650067833   109.90639112   188.05817291
 C      9   7   6     2.668237722132   109.58367556     0.80267817
 C      8   6   5     2.657648157576   132.84219078   351.14244493
 C     10   9   7     2.585899442435   130.00627969   179.23652532
 C     11   8   6     2.616452471728   118.28205866   179.89390047
 C     13  11   8     2.640131525782   120.75875947     0.17801076
 O      3   2   1     2.535143091977   111.62945133   166.47830211
 H     15   3   2     1.833241922559   108.33222297   178.38546394
 H      1   2   3     1.921469563402   109.16223140    30.98045610
 H      1   2   3     1.913610462736   110.74556134   274.61002337
 H      2   1   3     2.064986539831   109.49376109   120.75250523
 H      5   2   1     2.062990625232   110.09541913   185.72249268
 H      5   2   1     2.066384734546   109.17440778    67.18245593
 H      7   6   5     2.042425674227   127.92450163     7.76436961
 H      9   7   6     1.907730293560   125.09237470   179.87072285
 H     11   8   6     2.048826333780   120.81510615   359.49065937
 H     12  10   9     2.047776261435   122.64626773     0.32201581
 H     13  11   8     2.046641632895   119.93934105   179.95049582
 H     14  13  11     2.048510202958   119.18093767   179.86446397

---------------------
BASIS SET INFORMATION
---------------------
There are 4 groups of distinct atoms

 Group   1 Type N   : 12s8p2d1f contracted to 8s5p2d1f pattern {51111111/41111/11/1}
 Group   2 Type C   : 12s8p2d1f contracted to 8s5p2d1f pattern {51111111/41111/11/1}
 Group   3 Type O   : 12s8p2d1f contracted to 8s5p2d1f pattern {51111111/41111/11/1}
 Group   4 Type H   : 7s2p contracted to 5s2p pattern {31111/11}

Atom   0N    basis set group =>   1
Atom   1C    basis set group =>   2
Atom   2C    basis set group =>   2
Atom   3O    basis set group =>   3
Atom   4C    basis set group =>   2
Atom   5C    basis set group =>   2
Atom   6C    basis set group =>   2
Atom   7C    basis set group =>   2
Atom   8N    basis set group =>   1
Atom   9C    basis set group =>   2
Atom  10C    basis set group =>   2
Atom  11C    basis set group =>   2
Atom  12C    basis set group =>   2
Atom  13C    basis set group =>   2
Atom  14O    basis set group =>   3
Atom  15H    basis set group =>   4
Atom  16H    basis set group =>   4
Atom  17H    basis set group =>   4
Atom  18H    basis set group =>   4
Atom  19H    basis set group =>   4
Atom  20H    basis set group =>   4
Atom  21H    basis set group =>   4
Atom  22H    basis set group =>   4
Atom  23H    basis set group =>   4
Atom  24H    basis set group =>   4
Atom  25H    basis set group =>   4
Atom  26H    basis set group =>   4
---------------------------------
AUXILIARY/J BASIS SET INFORMATION
---------------------------------
There are 4 groups of distinct atoms

 Group   1 Type N   : 12s5p4d2f1g contracted to 6s4p3d1f1g pattern {711111/2111/211/2/1}
 Group   2 Type C   : 12s5p4d2f1g contracted to 6s4p3d1f1g pattern {711111/2111/211/2/1}
 Group   3 Type O   : 12s5p4d2f1g contracted to 6s4p3d1f1g pattern {711111/2111/211/2/1}
 Group   4 Type H   : 5s2p1d contracted to 3s1p1d pattern {311/2/1}

Atom   0N    basis set group =>   1
Atom   1C    basis set group =>   2
Atom   2C    basis set group =>   2
Atom   3O    basis set group =>   3
Atom   4C    basis set group =>   2
Atom   5C    basis set group =>   2
Atom   6C    basis set group =>   2
Atom   7C    basis set group =>   2
Atom   8N    basis set group =>   1
Atom   9C    basis set group =>   2
Atom  10C    basis set group =>   2
Atom  11C    basis set group =>   2
Atom  12C    basis set group =>   2
Atom  13C    basis set group =>   2
Atom  14O    basis set group =>   3
Atom  15H    basis set group =>   4
Atom  16H    basis set group =>   4
Atom  17H    basis set group =>   4
Atom  18H    basis set group =>   4
Atom  19H    basis set group =>   4
Atom  20H    basis set group =>   4
Atom  21H    basis set group =>   4
Atom  22H    basis set group =>   4
Atom  23H    basis set group =>   4
Atom  24H    basis set group =>   4
Atom  25H    basis set group =>   4
Atom  26H    basis set group =>   4


           ************************************************************
           *        Program running with 14 parallel MPI-processes    *
           *              working on a common directory               *
           ************************************************************
------------------------------------------------------------------------------
                             ORCA STARTUP CALCULATIONS
                           -- RI-GTO INTEGRALS CHOSEN --
------------------------------------------------------------------------------
------------------------------------------------------------------------------
                   ___                                                        
                  /   \      - P O W E R E D   B Y -                         
                 /     \                                                     
                 |  |  |   _    _      __       _____    __    __             
                 |  |  |  | |  | |    /  \     |  _  \  |  |  /  |          
                  \  \/   | |  | |   /    \    | | | |  |  | /  /          
                 / \  \   | |__| |  /  /\  \   | |_| |  |  |/  /          
                |  |  |   |  __  | /  /__\  \  |    /   |      \           
                |  |  |   | |  | | |   __   |  |    \   |  |\   \          
                \     /   | |  | | |  |  |  |  | |\  \  |  | \   \       
                 \___/    |_|  |_| |__|  |__|  |_| \__\ |__|  \__/        
                                                                              
                      - O R C A' S   B I G   F R I E N D -                    
                                      &                                       
                       - I N T E G R A L  F E E D E R -                       
                                                                              
 v1 FN, 2020, v2 2021, v3 2022-2024                                           
------------------------------------------------------------------------------


----------------------
SHARK INTEGRAL PACKAGE
----------------------

Number of atoms                             ...     27
Number of basis functions                   ...    732
Number of shells                            ...    324
Maximum angular momentum                    ...      3
Integral batch strategy                     ... SHARK/LIBINT Hybrid
RI-J (if used) integral strategy            ... SPLIT-RIJ (Revised 2003 algorithm where possible)
Printlevel                                  ...      1
Contraction scheme used                     ... SEGMENTED contraction
Prescreening option                         ... SCHWARTZ
   Thresh                                   ... 2.500e-11
   Tcut                                     ... 2.500e-12
   Tpresel                                  ... 2.500e-12 
Coulomb Range Separation                    ... NOT USED
Exchange Range Separation                   ... Long Range
   Mu parameter                             ... 3.000e-01
   Scaling (regular/separated)              ... 1.670e-01 8.330e-01
Multipole approximations                    ... NOT USED
Finite Nucleus Model                        ... NOT USED
CABS basis                                  ... NOT available
Auxiliary Coulomb fitting basis             ... AVAILABLE
   # of basis functions in Aux-J            ...    867
   # of shells in Aux-J                     ...    285
   Maximum angular momentum in Aux-J        ...      4
Auxiliary J/K fitting basis                 ... NOT available
Auxiliary Correlation fitting basis         ... NOT available
Auxiliary 'external' fitting basis          ... NOT available

Checking pre-screening integrals            ... done (  0.0 sec) Dimension = 324
Check shell pair data                       ... done (  0.0 sec)
Shell pair information
Shell pair cut-off parameter TPreSel        ...   2.5e-12
Total number of shell pairs                 ...     52650
Shell pairs after pre-screening             ...     39758
Total number of primitive shell pairs       ...    103107
Primitive shell pairs kept                  ...     62071
          la=0 lb=0:  11106 shell pairs
          la=1 lb=0:  14043 shell pairs
          la=1 lb=1:   4283 shell pairs
          la=2 lb=0:   3968 shell pairs
          la=2 lb=1:   2479 shell pairs
          la=2 lb=2:    373 shell pairs
          la=3 lb=0:   1874 shell pairs
          la=3 lb=1:   1203 shell pairs
          la=3 lb=2:    339 shell pairs
          la=3 lb=3:     90 shell pairs

Calculating one electron integrals          ... done (  0.0 sec)
Calculating RI/J V-Matrix + Cholesky decomp.... done (  0.0 sec)
Calculating Nuclear repulsion               ... done (  0.0 sec) ENN=    955.935307215534 Eh

Diagonalization of the overlap matrix:
Smallest eigenvalue                        ... 3.703e-08
Time for diagonalization                   ...    0.094 sec
Threshold for overlap eigenvalues          ... 1.000e-07
Number of eigenvalues below threshold      ... 2
Smallest eigenvalue above threshold        ... 1.545e-07

IMPORTANT:
Smallest eigenvalue of S below the DiffSThresh (1.000e-06) while
Thresh>1e-12 and/or TCut>1e-13! In order to avoid SCF convergence issues,
Thresh will be set to at least 1e-12 and TCut to at least 1e-13.
This can be turned off by adding %SCF DiffSThresh -1 END to the input.

Time for construction of square roots      ...    0.047 sec
Total time needed                          ...    0.146 sec

-------------------
DFT GRID GENERATION
-------------------

General Integration Accuracy     IntAcc      ... 4.388
Radial Grid Type                 RadialGrid  ... OptM3 with GC (2021)
Angular Grid (max. ang.)         AngularGrid ... 4 (Lebedev-302)
Angular grid pruning method      GridPruning ... 4 (adaptive)
Weight generation scheme         WeightScheme... mBecke (2022)
Basis function cutoff            BFCut       ... 1.0000e-11
Integration weight cutoff        WCut        ... 1.0000e-14
Partially contracted basis set               ... off
Rotationally invariant grid construction     ... off
Angular grids for H and He will be reduced by one unit
Diffuse basis detected: some atoms will have their outermost
                        angular grid increased by 1.

Total number of grid points                  ...   134139
Total number of batches                      ...     2109
Average number of points per batch           ...       63
Average number of grid points per atom       ...     4968

--------------------
COSX GRID GENERATION
--------------------

GRIDX 1
-------
General Integration Accuracy     IntAcc      ... 3.816
Radial Grid Type                 RadialGrid  ... OptM3 with GC (2021)
Angular Grid (max. ang.)         AngularGrid ... 1 (Lebedev-50)
Angular grid pruning method      GridPruning ... 4 (adaptive)
Weight generation scheme         WeightScheme... mBecke (2022)
Basis function cutoff            BFCut       ... 1.0000e-11
Integration weight cutoff        WCut        ... 1.0000e-14
Partially contracted basis set               ... on
Rotationally invariant grid construction     ... off
Angular grids for H and He will be reduced by one unit
Diffuse basis detected: some atoms will have their outermost
                        angular grid increased by 1.

Total number of grid points                  ...    16828
Total number of batches                      ...      144
Average number of points per batch           ...      116
Average number of grid points per atom       ...      623
UseSFitting                                  ... on

GRIDX 2
-------
General Integration Accuracy     IntAcc      ... 4.020
Radial Grid Type                 RadialGrid  ... OptM3 with GC (2021)
Angular Grid (max. ang.)         AngularGrid ... 2 (Lebedev-110)
Angular grid pruning method      GridPruning ... 4 (adaptive)
Weight generation scheme         WeightScheme... mBecke (2022)
Basis function cutoff            BFCut       ... 1.0000e-11
Integration weight cutoff        WCut        ... 1.0000e-14
Partially contracted basis set               ... on
Rotationally invariant grid construction     ... off
Angular grids for H and He will be reduced by one unit
Diffuse basis detected: some atoms will have their outermost
                        angular grid increased by 1.

Total number of grid points                  ...    40533
Total number of batches                      ...      330
Average number of points per batch           ...      122
Average number of grid points per atom       ...     1501
UseSFitting                                  ... on

GRIDX 3
-------
General Integration Accuracy     IntAcc      ... 4.338
Radial Grid Type                 RadialGrid  ... OptM3 with GC (2021)
Angular Grid (max. ang.)         AngularGrid ... 3 (Lebedev-194)
Angular grid pruning method      GridPruning ... 4 (adaptive)
Weight generation scheme         WeightScheme... mBecke (2022)
Basis function cutoff            BFCut       ... 1.0000e-11
Integration weight cutoff        WCut        ... 1.0000e-14
Partially contracted basis set               ... on
Rotationally invariant grid construction     ... off
Angular grids for H and He will be reduced by one unit
Diffuse basis detected: some atoms will have their outermost
                        angular grid increased by 1.

Total number of grid points                  ...    89577
Total number of batches                      ...      716
Average number of points per batch           ...      125
Average number of grid points per atom       ...     3318
UseSFitting                                  ... on
Initializing property integral containers    ... done (  0.0 sec)

SHARK setup successfully completed in   2.7 seconds

Maximum memory used throughout the entire STARTUP-calculation: 67.6 MB


           ************************************************************
           *        Program running with 14 parallel MPI-processes    *
           *              working on a common directory               *
           ************************************************************
-------------------------------------------------------------------------------
                                 ORCA GUESS
                   Start orbitals & Density for SCF / CASSCF
-------------------------------------------------------------------------------

------------
SCF SETTINGS
------------
Hamiltonian:
 Density Functional     Method          .... DFT(GTOs)
 Exchange Functional    Exchange        .... WB97X-V
 Correlation Functional Correlation     .... WB97X-V
 Gradients option       PostSCFGGA      .... off
 Hybrid DFT is turned on
   Fraction HF Exchange ScalHFX         ....  0.167000
   Scaling of DF-GGA-X  ScalDFX         ....  0.000000
   Scaling of DF-GGA-C  ScalDFC         ....  1.000000
   Scaling of DF-LDA-C  ScalLDAC        ....  1.000000
   Perturbative correction              ....  0.000000
 Long-range corrected/Screened/Range-Separated Hybrid DFT is turned on
   Amount of maximum screened exact exchange              ....  0.833000
   Range separation parameter mu (erf(mu*r12)/r12)        ....  0.300000
 RI-approximation to the Coulomb term is turned on
   Number of AuxJ basis functions       .... 867
   RIJ-COSX (HFX calculated with COS-X)).... on


General Settings:
 Integral files         IntName         .... TrpC-dihedral-A
 Hartree-Fock type      HFTyp           .... UHF
 Total Charge           Charge          ....    1
 Multiplicity           Mult            ....    2
 Number of Electrons    NEL             ....  107
 Basis Dimension        Dim             ....  732
 Nuclear Repulsion      ENuc            ....    955.9353072155 Eh

Convergence Acceleration:
 AO-DIIS                CNVDIIS         .... on
   Start iteration      DIISMaxIt       ....    12
   Startup error        DIISStart       ....  0.200000
   # of expansion vecs  DIISMaxEq       ....     5
   Bias factor          DIISBfac        ....   1.050
   Max. coefficient     DIISMaxC        ....  10.000
 MO-DIIS                CNVKDIIS        .... off
 Trust-Rad. Augm. Hess. CNVTRAH         .... auto
   Auto Start mean grad. ratio tolernc. ....  1.125000
   Auto Start start iteration           ....    50
   Auto Start num. interpolation iter.  ....    10
   Max. Number of Micro iterations      ....    24
   Max. Number of Macro iterations      .... Maxiter - #DIIS iter
   Number of Davidson start vectors     ....     2
   Converg. threshold    (grad. norm)   ....   1.000e-05
   Grad. Scal. Fac. for Micro threshold ....   0.100
   Minimum threshold for Micro iter.    ....   1.000e-02
   NR start threshold (gradient norm)   ....   1.000e-04
   Initial trust radius                 ....   0.400
   Minimum AH scaling param. (alpha)    ....   1.000
   Maximum AH scaling param. (alpha)    .... 1000.000
   Quad. conv. algorithm                .... NR
   White noise on init. David. guess    .... on
   Maximum white noise                  ....   0.010
   Pseudo random numbers                .... off
   Inactive MOs                         .... canonical
   Orbital update algorithm             .... Taylor
   Preconditioner                       .... Diag
   Full preconditioner red. dimension   ....   250
 SOSCF                  CNVSOSCF        .... on
   Start iteration      SOSCFMaxIt      ....   150
   Startup grad/error   SOSCFStart      ....  0.003300
   Hessian update       SOSCFHessUp     .... L-BFGS
 Level Shifting         CNVShift        .... on
   Level shift para.    LevelShift      ....    0.2500
   Turn off err/grad.   ShiftErr        ....    0.0010
 Zerner damping         CNVZerner       .... off
 Static damping         CNVDamp         .... on
   Fraction old density DampFac         ....    0.7000
   Max. Damping (<1)    DampMax         ....    0.9800
   Min. Damping (>=0)   DampMin         ....    0.0000
   Turn off err/grad.   DampErr         ....    0.1000

SCF Procedure:
 Maximum # iterations   MaxIter         ....   125
 SCF integral mode      SCFMode         .... Direct
   Integral package                     .... SHARK and LIBINT hybrid scheme
 Reset frequency        DirectResetFreq ....    20
 Integral Threshold     Thresh          ....  1.000e-12 Eh
 Primitive CutOff       TCut            ....  1.000e-13 Eh

Convergence Tolerance:
 Convergence Check Mode ConvCheckMode   .... Total+1el-Energy
 Convergence forced     ConvForced      .... 0
 Energy Change          TolE            ....  1.000e-08 Eh
 1-El. energy change                    ....  1.000e-05 Eh
 Orbital Gradient       TolG            ....  1.000e-05
 Orbital Rotation angle TolX            ....  1.000e-05
 DIIS Error             TolErr          ....  5.000e-07

------------------------------
INITIAL GUESS: MODEL POTENTIAL
------------------------------
Loading Hartree-Fock densities                     ... done
Calculating cut-offs                               ... done
Initializing the effective Hamiltonian             ... done
Setting up the integral package (SHARK)            ... done
Starting the Coulomb interaction                   ... done (   0.2 sec)
Making the grid                                    ... done (   0.2 sec)
Mapping shells                                     ... done
Starting the XC term evaluation                    ... done (   0.2 sec)
  promolecular density results
     # of electrons  =    107.997369748
     EX              =    -60.474742625
     EC              =     -4.510110408
     EX+EC           =    -64.984853033
Transforming the Hamiltonian                       ... done (   0.0 sec)
Diagonalizing the Hamiltonian                      ... done (   0.1 sec)
Back transforming the eigenvectors                 ... done (   0.0 sec)
Now organizing SCF variables                       ... done
                      ------------------
                      INITIAL GUESS DONE (   0.9 sec)
                      ------------------
             **** ENERGY FILE WAS UPDATED (TrpC-dihedral-A.en.tmp) ****
Finished Guess after   1.6 sec
Maximum memory used throughout the entire GUESS-calculation: 58.7 MB


           ************************************************************
           *        Program running with 14 parallel MPI-processes    *
           *              working on a common directory               *
           ************************************************************

-------------------------------------------------------------------------------------------
                                      ORCA LEAN-SCF
                              memory conserving SCF solver
-------------------------------------------------------------------------------------------

----------------------------------------D-I-I-S--------------------------------------------
Iteration    Energy (Eh)           Delta-E    RMSDP     MaxDP     DIISErr   Damp  Time(sec)
-------------------------------------------------------------------------------------------
               ***  Starting incremental Fock matrix formation  ***
    1    -686.4496097547201998     0.00e+00  3.90e-03  9.87e-01  2.04e-01  0.700  12.8
    2    -686.5008396976144240    -5.12e-02  3.25e-03  8.07e-01  1.39e-01  0.700   6.8
                               ***Turning on AO-DIIS***
    3    -686.5309349142429483    -3.01e-02  2.34e-03  5.74e-01  9.60e-02  0.700   6.3
    4    -686.5504550255546974    -1.95e-02  5.67e-03  1.37e+00  6.67e-02  0.000   6.4
    5    -686.5990180190711953    -4.86e-02  3.01e-04  4.92e-02  4.04e-03  0.000   6.6
                              *** Initializing SOSCF ***
---------------------------------------S-O-S-C-F--------------------------------------
Iteration    Energy (Eh)           Delta-E    RMSDP     MaxDP     MaxGrad    Time(sec)
--------------------------------------------------------------------------------------
    6    -686.5998623944627752    -8.44e-04  1.49e-04  2.70e-02  1.49e-03     6.6
               *** Restarting incremental Fock matrix formation ***
    7    -686.6001405861428566    -2.78e-04  1.87e-04  3.14e-02  1.80e-03    12.3
    8    -686.6003308027703724    -1.90e-04  2.02e-04  3.64e-02  1.23e-03    10.9
    9    -686.6004764859000034    -1.46e-04  7.15e-05  1.04e-02  8.42e-04    10.9
   10    -686.6005096234331404    -3.31e-05  5.16e-05  8.32e-03  6.31e-04    10.2
   11    -686.6005362955387454    -2.67e-05  6.38e-05  8.44e-03  3.78e-04    10.2
   12    -686.6005493490544040    -1.31e-05  1.66e-05  1.75e-03  2.35e-04    10.5
   13    -686.6005527128276071    -3.36e-06  1.15e-05  1.95e-03  1.46e-04     9.6
   14    -686.6005536937560692    -9.81e-07  1.23e-05  2.17e-03  7.46e-05     9.3
   15    -686.6005541679613771    -4.74e-07  1.42e-05  1.99e-03  6.20e-05     9.4
   16    -686.6005543431323304    -1.75e-07  1.37e-05  3.65e-03  2.76e-05     9.1
   17    -686.6005543879015249    -4.48e-08  1.40e-05  2.22e-03  1.54e-05     8.6
   18    -686.6005544153721303    -2.75e-08  8.48e-06  1.23e-03  5.41e-06     8.4
   19    -686.6005544285202404    -1.31e-08  1.09e-05  2.41e-03  4.62e-06     8.1
   20    -686.6005544193700416     9.15e-09  2.00e-05  5.12e-03  1.73e-06     7.5
                 **** Energy Check signals convergence ****

               *****************************************************
               *                     SUCCESS                       *
               *           SCF CONVERGED AFTER  20 CYCLES          *
               *****************************************************

Recomputing exchange energy using gridx3       ... done (   21.221 sec)
Old exchange energy                            :    -29.166035080 Eh
New exchange energy                            :    -29.166035213 Eh
Exchange energy change after final integration :     -0.000000133 Eh
Total energy after final integration           :   -686.600554553 Eh
             **** ENERGY FILE WAS UPDATED (TrpC-dihedral-A.en.tmp) ****

----------------
TOTAL SCF ENERGY
----------------

Total Energy       :       -686.60055455263102 Eh          -18683.35093 eV

Components:
Nuclear Repulsion  :        955.93530721553441 Eh           26012.32215 eV
Electronic Energy  :      -1642.53586163490445 Eh          -44695.67308 eV
One Electron Energy:      -2812.26882419837057 Eh          -76525.72520 eV
Two Electron Energy:       1169.73296256346612 Eh           31830.05212 eV

Virial components:
Potential Energy   :      -1370.36068998825340 Eh          -37289.41013 eV
Kinetic Energy     :        683.76013543562226 Eh           18606.05920 eV
Virial Ratio       :          2.00415411628992

DFT components:
N(Alpha)           :       53.999978646164 electrons
N(Beta)            :       52.999974362135 electrons
N(Total)           :      106.999953008298 electrons
E(X)               :      -61.630630516274 Eh       
E(C)               :       -4.504321875454 Eh       
E(XC)              :      -66.134952391728 Eh       

---------------
SCF CONVERGENCE
---------------

  Last Energy change         ...   -9.1502e-09  Tolerance :   1.0000e-08
  Last MAX-Density change    ...    5.1179e-03  Tolerance :   1.0000e-07
  Last RMS-Density change    ...    1.9972e-05  Tolerance :   5.0000e-09
  Last DIIS Error            ...    1.4874e-03  Tolerance :   5.0000e-07
  Last Orbital Gradient      ...    1.7343e-06  Tolerance :   1.0000e-05
  Last Orbital Rotation      ...    9.7815e-06  Tolerance :   1.0000e-05


----------------------
UHF SPIN CONTAMINATION
----------------------

Warning: in a DFT calculation there is little theoretical justification to 
         calculate <S**2> as in Hartree-Fock theory. We will do it anyways
         but you should keep in mind that the values have only limited relevance

Expectation value of <S**2>     :     0.782115
Ideal value S*(S+1) for S=0.5   :     0.750000
Deviation                       :     0.032115

----------------
ORBITAL ENERGIES
----------------
                 SPIN UP ORBITALS
  NO   OCC          E(Eh)            E(eV) 
   0   1.0000     -19.382090      -527.4135 
   1   1.0000     -19.324554      -525.8479 
   2   1.0000     -14.659921      -398.9167 
   3   1.0000     -14.528828      -395.3495 
   4   1.0000     -10.526801      -286.4488 
   5   1.0000     -10.522829      -286.3407 
   6   1.0000     -10.491149      -285.4787 
   7   1.0000     -10.487384      -285.3762 
   8   1.0000     -10.460062      -284.6328 
   9   1.0000     -10.453654      -284.4584 
  10   1.0000     -10.450095      -284.3616 
  11   1.0000     -10.449179      -284.3366 
  12   1.0000     -10.447999      -284.3045 
  13   1.0000     -10.436437      -283.9899 
  14   1.0000     -10.429825      -283.8100 
  15   1.0000      -1.365491       -37.1569 
  16   1.0000      -1.322516       -35.9875 
  17   1.0000      -1.274654       -34.6851 
  18   1.0000      -1.173535       -31.9335 
  19   1.0000      -1.160797       -31.5869 
  20   1.0000      -1.119335       -30.4587 
  21   1.0000      -1.052882       -28.6504 
  22   1.0000      -1.044866       -28.4323 
  23   1.0000      -1.020790       -27.7771 
  24   1.0000      -0.950551       -25.8658 
  25   1.0000      -0.928086       -25.2545 
  26   1.0000      -0.898041       -24.4369 
  27   1.0000      -0.862915       -23.4811 
  28   1.0000      -0.843446       -22.9513 
  29   1.0000      -0.835622       -22.7384 
  30   1.0000      -0.784937       -21.3592 
  31   1.0000      -0.774961       -21.0878 
  32   1.0000      -0.763706       -20.7815 
  33   1.0000      -0.753456       -20.5026 
  34   1.0000      -0.733413       -19.9572 
  35   1.0000      -0.728918       -19.8349 
  36   1.0000      -0.722157       -19.6509 
  37   1.0000      -0.714726       -19.4487 
  38   1.0000      -0.699101       -19.0235 
  39   1.0000      -0.697958       -18.9924 
  40   1.0000      -0.671249       -18.2656 
  41   1.0000      -0.665588       -18.1116 
  42   1.0000      -0.640898       -17.4397 
  43   1.0000      -0.637576       -17.3493 
  44   1.0000      -0.635001       -17.2792 
  45   1.0000      -0.627120       -17.0648 
  46   1.0000      -0.613875       -16.7044 
  47   1.0000      -0.601710       -16.3734 
  48   1.0000      -0.562406       -15.3038 
  49   1.0000      -0.552475       -15.0336 
  50   1.0000      -0.515793       -14.0354 
  51   1.0000      -0.505014       -13.7421 
  52   1.0000      -0.493475       -13.4281 
  53   1.0000      -0.474162       -12.9026 
  54   0.0000      -0.128495        -3.4965 
  55   0.0000      -0.079208        -2.1554 
  56   0.0000      -0.075793        -2.0624 
  57   0.0000      -0.062745        -1.7074 
  58   0.0000      -0.058389        -1.5889 
  59   0.0000      -0.055246        -1.5033 
  60   0.0000      -0.049590        -1.3494 
  61   0.0000      -0.041461        -1.1282 
  62   0.0000      -0.039809        -1.0832 
  63   0.0000      -0.037269        -1.0141 
  64   0.0000      -0.028491        -0.7753 

                 SPIN DOWN ORBITALS
  NO   OCC          E(Eh)            E(eV) 
   0   1.0000     -19.382098      -527.4137 
   1   1.0000     -19.324442      -525.8448 
   2   1.0000     -14.658030      -398.8653 
   3   1.0000     -14.528446      -395.3391 
   4   1.0000     -10.526841      -286.4499 
   5   1.0000     -10.520325      -286.2726 
   6   1.0000     -10.489917      -285.4452 
   7   1.0000     -10.482819      -285.2520 
   8   1.0000     -10.459584      -284.6198 
   9   1.0000     -10.451081      -284.3884 
  10   1.0000     -10.449756      -284.3523 
  11   1.0000     -10.449326      -284.3406 
  12   1.0000     -10.447561      -284.2926 
  13   1.0000     -10.436684      -283.9966 
  14   1.0000     -10.431104      -283.8448 
  15   1.0000      -1.365434       -37.1553 
  16   1.0000      -1.315899       -35.8074 
  17   1.0000      -1.274489       -34.6806 
  18   1.0000      -1.171354       -31.8742 
  19   1.0000      -1.157897       -31.5080 
  20   1.0000      -1.109986       -30.2043 
  21   1.0000      -1.050396       -28.5827 
  22   1.0000      -1.041140       -28.3309 
  23   1.0000      -1.011760       -27.5314 
  24   1.0000      -0.948628       -25.8135 
  25   1.0000      -0.925180       -25.1754 
  26   1.0000      -0.894534       -24.3415 
  27   1.0000      -0.858302       -23.3556 
  28   1.0000      -0.841899       -22.9092 
  29   1.0000      -0.832672       -22.6581 
  30   1.0000      -0.782621       -21.2962 
  31   1.0000      -0.772544       -21.0220 
  32   1.0000      -0.760906       -20.7053 
  33   1.0000      -0.742491       -20.2042 
  34   1.0000      -0.727883       -19.8067 
  35   1.0000      -0.725843       -19.7512 
  36   1.0000      -0.715838       -19.4789 
  37   1.0000      -0.713308       -19.4101 
  38   1.0000      -0.697725       -18.9861 
  39   1.0000      -0.695729       -18.9318 
  40   1.0000      -0.669395       -18.2152 
  41   1.0000      -0.663141       -18.0450 
  42   1.0000      -0.637711       -17.3530 
  43   1.0000      -0.633376       -17.2350 
  44   1.0000      -0.625121       -17.0104 
  45   1.0000      -0.618457       -16.8291 
  46   1.0000      -0.612279       -16.6610 
  47   1.0000      -0.600340       -16.3361 
  48   1.0000      -0.553468       -15.0606 
  49   1.0000      -0.529156       -14.3991 
  50   1.0000      -0.511229       -13.9112 
  51   1.0000      -0.501465       -13.6455 
  52   1.0000      -0.491482       -13.3739 
  53   0.0000      -0.243322        -6.6211 
  54   0.0000      -0.099910        -2.7187 
  55   0.0000      -0.078839        -2.1453 
  56   0.0000      -0.062531        -1.7016 
  57   0.0000      -0.061798        -1.6816 
  58   0.0000      -0.056441        -1.5358 
  59   0.0000      -0.049832        -1.3560 
  60   0.0000      -0.043358        -1.1798 
  61   0.0000      -0.040726        -1.1082 
  62   0.0000      -0.039165        -1.0657 
  63   0.0000      -0.033011        -0.8983 
*Only the first 10 virtual orbitals were printed.

                    ********************************
                    * MULLIKEN POPULATION ANALYSIS *
                    ********************************

--------------------------------------------
MULLIKEN ATOMIC CHARGES AND SPIN POPULATIONS
--------------------------------------------
   0 N :   -0.607042    0.012435
   1 C :    0.074970    0.025501
   2 C :    0.318264    0.000417
   3 O :   -0.293729    0.005099
   4 C :   -0.348158   -0.009654
   5 C :   -0.191872    0.376826
   6 C :   -0.081691    0.227302
   7 C :    0.241328   -0.079435
   8 N :   -0.158597    0.094268
   9 C :    0.053121    0.063340
  10 C :   -0.276387    0.231209
  11 C :   -0.033033   -0.033185
  12 C :    0.077520   -0.110100
  13 C :    0.073856    0.208360
  14 O :   -0.372254   -0.000820
  15 H :    0.367115   -0.000029
  16 H :    0.289574   -0.000079
  17 H :    0.276159   -0.000007
  18 H :    0.169617   -0.000861
  19 H :    0.202029    0.008336
  20 H :    0.193852    0.001738
  21 H :    0.169203   -0.006853
  22 H :    0.280476   -0.001784
  23 H :    0.139525   -0.009793
  24 H :    0.128748    0.002416
  25 H :    0.148972    0.004469
  26 H :    0.158434   -0.009116
Sum of atomic charges         :    1.0000000
Sum of atomic spin populations:    1.0000000

-----------------------------------------------------
MULLIKEN REDUCED ORBITAL CHARGES AND SPIN POPULATIONS
-----------------------------------------------------
CHARGE
  0 N s       :     3.566157  s :     3.566157
      pz      :     1.126835  p :     3.992558
      px      :     1.416568
      py      :     1.449155
      dz2     :     0.014233  d :     0.045669
      dxz     :     0.007341
      dyz     :     0.011218
      dx2y2   :     0.011605
      dxy     :     0.001271
      f0      :     0.000758  f :     0.002659
      f+1     :     0.000535
      f-1     :     0.000448
      f+2     :     0.000241
      f-2     :     0.000128
      f+3     :     0.000245
      f-3     :     0.000304

  1 C s       :     3.093654  s :     3.093654
      pz      :     0.783580  p :     2.659687
      px      :     0.944580
      py      :     0.931527
      dz2     :     0.031343  d :     0.162811
      dxz     :     0.041897
      dyz     :     0.045440
      dx2y2   :     0.015743
      dxy     :     0.028387
      f0      :     0.001783  f :     0.008879
      f+1     :     0.002052
      f-1     :     0.002282
      f+2     :     0.000615
      f-2     :     0.000430
      f+3     :     0.000787
      f-3     :     0.000930

  2 C s       :     3.029492  s :     3.029492
      pz      :     0.745155  p :     2.347856
      px      :     0.836909
      py      :     0.765792
      dz2     :     0.074081  d :     0.281367
      dxz     :     0.075771
      dyz     :     0.046986
      dx2y2   :     0.032190
      dxy     :     0.052340
      f0      :     0.003296  f :     0.023021
      f+1     :     0.007070
      f-1     :     0.002568
      f+2     :     0.002678
      f-2     :     0.002228
      f+3     :     0.002259
      f-3     :     0.002923

  3 O s       :     3.873355  s :     3.873355
      pz      :     1.635989  p :     4.387365
      px      :     1.336874
      py      :     1.414501
      dz2     :     0.004891  d :     0.031079
      dxz     :     0.008020
      dyz     :     0.002349
      dx2y2   :     0.006300
      dxy     :     0.009518
      f0      :     0.000171  f :     0.001931
      f+1     :     0.000503
      f-1     :     0.000009
      f+2     :     0.000356
      f-2     :     0.000306
      f+3     :     0.000214
      f-3     :     0.000372

  4 C s       :     3.424422  s :     3.424422
      pz      :     0.966480  p :     2.820957
      px      :     0.883646
      py      :     0.970831
      dz2     :     0.027836  d :     0.098178
      dxz     :     0.011446
      dyz     :     0.012335
      dx2y2   :     0.017190
      dxy     :     0.029372
      f0      :     0.000795  f :     0.004600
      f+1     :     0.000635
      f-1     :     0.000531
      f+2     :     0.000483
      f-2     :     0.000454
      f+3     :     0.000747
      f-3     :     0.000956

  5 C s       :     3.193906  s :     3.193906
      pz      :     0.919841  p :     2.842438
      px      :     1.040997
      py      :     0.881601
      dz2     :     0.037068  d :     0.147009
      dxz     :     0.030453
      dyz     :     0.017576
      dx2y2   :     0.030281
      dxy     :     0.031630
      f0      :     0.001190  f :     0.008519
      f+1     :     0.001315
      f-1     :     0.000934
      f+2     :     0.001433
      f-2     :     0.001162
      f+3     :     0.001351
      f-3     :     0.001134

  6 C s       :     3.367778  s :     3.367778
      pz      :     0.890562  p :     2.581557
      px      :     0.845120
      py      :     0.845874
      dz2     :     0.028289  d :     0.121495
      dxz     :     0.029859
      dyz     :     0.015668
      dx2y2   :     0.018209
      dxy     :     0.029470
      f0      :     0.001252  f :     0.010862
      f+1     :     0.001810
      f-1     :     0.000746
      f+2     :     0.001904
      f-2     :     0.001657
      f+3     :     0.001350
      f-3     :     0.002142

  7 C s       :     2.840989  s :     2.840989
      pz      :     0.853414  p :     2.779098
      px      :     1.037135
      py      :     0.888549
      dz2     :     0.029021  d :     0.129145
      dxz     :     0.033395
      dyz     :     0.014998
      dx2y2   :     0.024603
      dxy     :     0.027128
      f0      :     0.001288  f :     0.009440
      f+1     :     0.001170
      f-1     :     0.001214
      f+2     :     0.002098
      f-2     :     0.001312
      f+3     :     0.001181
      f-3     :     0.001178

  8 N s       :     3.414241  s :     3.414241
      pz      :     1.242473  p :     3.671351
      px      :     1.068342
      py      :     1.360536
      dz2     :     0.011511  d :     0.067604
      dxz     :     0.018346
      dyz     :     0.009862
      dx2y2   :     0.010696
      dxy     :     0.017189
      f0      :     0.000318  f :     0.005400
      f+1     :     0.000953
      f-1     :     0.000887
      f+2     :     0.000996
      f-2     :     0.000923
      f+3     :     0.000542
      f-3     :     0.000780

  9 C s       :     3.067517  s :     3.067517
      pz      :     0.931406  p :     2.715503
      px      :     0.874499
      py      :     0.909598
      dz2     :     0.029327  d :     0.151378
      dxz     :     0.042848
      dyz     :     0.016397
      dx2y2   :     0.023986
      dxy     :     0.038821
      f0      :     0.001440  f :     0.012481
      f+1     :     0.001819
      f-1     :     0.001064
      f+2     :     0.002630
      f-2     :     0.001703
      f+3     :     0.001641
      f-3     :     0.002185

 10 C s       :     3.465753  s :     3.465753
      pz      :     0.904568  p :     2.709187
      px      :     0.911893
      py      :     0.892727
      dz2     :     0.015091  d :     0.094808
      dxz     :     0.031176
      dyz     :     0.010024
      dx2y2   :     0.016019
      dxy     :     0.022498
      f0      :     0.000702  f :     0.006639
      f+1     :     0.000846
      f-1     :     0.000860
      f+2     :     0.001448
      f-2     :     0.000850
      f+3     :     0.000750
      f-3     :     0.001183

 11 C s       :     3.248757  s :     3.248757
      pz      :     0.923883  p :     2.688725
      px      :     0.849138
      py      :     0.915704
      dz2     :     0.016490  d :     0.088765
      dxz     :     0.024749
      dyz     :     0.010923
      dx2y2   :     0.016958
      dxy     :     0.019644
      f0      :     0.000735  f :     0.006786
      f+1     :     0.000799
      f-1     :     0.000946
      f+2     :     0.001497
      f-2     :     0.000854
      f+3     :     0.000757
      f-3     :     0.001199

 12 C s       :     3.088183  s :     3.088183
      pz      :     0.925430  p :     2.741191
      px      :     0.872916
      py      :     0.942845
      dz2     :     0.016516  d :     0.086230
      dxz     :     0.023322
      dyz     :     0.012315
      dx2y2   :     0.014020
      dxy     :     0.020057
      f0      :     0.000906  f :     0.006876
      f+1     :     0.000765
      f-1     :     0.000824
      f+2     :     0.001458
      f-2     :     0.001004
      f+3     :     0.000733
      f-3     :     0.001186

 13 C s       :     3.139586  s :     3.139586
      pz      :     0.864858  p :     2.688738
      px      :     0.977635
      py      :     0.846245
      dz2     :     0.025022  d :     0.090994
      dxz     :     0.020073
      dyz     :     0.011897
      dx2y2   :     0.020791
      dxy     :     0.013212
      f0      :     0.001036  f :     0.006825
      f+1     :     0.001048
      f-1     :     0.000938
      f+2     :     0.001487
      f-2     :     0.000967
      f+3     :     0.000837
      f-3     :     0.000512

 14 O s       :     3.770321  s :     3.770321
      pz      :     1.335193  p :     4.569708
      px      :     1.529025
      py      :     1.705490
      dz2     :     0.008757  d :     0.030546
      dxz     :     0.008714
      dyz     :     0.004782
      dx2y2   :     0.004980
      dxy     :     0.003312
      f0      :     0.000447  f :     0.001679
      f+1     :     0.000163
      f-1     :     0.000359
      f+2     :     0.000262
      f-2     :     0.000166
      f+3     :     0.000119
      f-3     :     0.000164

 15 H s       :     0.579332  s :     0.579332
      pz      :     0.014290  p :     0.053553
      px      :     0.017141
      py      :     0.022122

 16 H s       :     0.668302  s :     0.668302
      pz      :     0.010298  p :     0.042124
      px      :     0.018619
      py      :     0.013206

 17 H s       :     0.679314  s :     0.679314
      pz      :     0.012421  p :     0.044527
      px      :     0.014061
      py      :     0.018046

 18 H s       :     0.802698  s :     0.802698
      pz      :     0.006953  p :     0.027685
      px      :     0.010566
      py      :     0.010166

 19 H s       :     0.770721  s :     0.770721
      pz      :     0.013640  p :     0.027250
      px      :     0.006518
      py      :     0.007092

 20 H s       :     0.778948  s :     0.778948
      pz      :     0.006831  p :     0.027200
      px      :     0.011040
      py      :     0.009328

 21 H s       :     0.802443  s :     0.802443
      pz      :     0.008141  p :     0.028354
      px      :     0.012324
      py      :     0.007889

 22 H s       :     0.678346  s :     0.678346
      pz      :     0.016891  p :     0.041178
      px      :     0.007441
      py      :     0.016846

 23 H s       :     0.832413  s :     0.832413
      pz      :     0.011538  p :     0.028061
      px      :     0.007507
      py      :     0.009016

 24 H s       :     0.842914  s :     0.842914
      pz      :     0.011021  p :     0.028338
      px      :     0.008301
      py      :     0.009015

 25 H s       :     0.823897  s :     0.823897
      pz      :     0.009878  p :     0.027131
      px      :     0.007265
      py      :     0.009987

 26 H s       :     0.815200  s :     0.815200
      pz      :     0.006293  p :     0.026366
      px      :     0.012737
      py      :     0.007336


SPIN
  0 N s       :     0.000290  s :     0.000290
      pz      :     0.002659  p :     0.011636
      px      :     0.006046
      py      :     0.002931
      dz2     :     0.000107  d :     0.000495
      dxz     :     0.000012
      dyz     :     0.000216
      dx2y2   :    -0.000018
      dxy     :     0.000178
      f0      :    -0.000003  f :     0.000013
      f+1     :     0.000004
      f-1     :     0.000016
      f+2     :    -0.000001
      f-2     :    -0.000002
      f+3     :     0.000001
      f-3     :    -0.000001

  1 C s       :     0.001816  s :     0.001816
      pz      :     0.003734  p :     0.023647
      px      :     0.001840
      py      :     0.018073
      dz2     :    -0.000046  d :     0.000018
      dxz     :    -0.000025
      dyz     :     0.000123
      dx2y2   :    -0.000004
      dxy     :    -0.000029
      f0      :    -0.000001  f :     0.000020
      f+1     :     0.000007
      f-1     :     0.000013
      f+2     :     0.000001
      f-2     :    -0.000002
      f+3     :    -0.000001
      f-3     :     0.000002

  2 C s       :     0.001754  s :     0.001754
      pz      :    -0.000610  p :    -0.001821
      px      :    -0.000102
      py      :    -0.001109
      dz2     :    -0.000067  d :     0.000443
      dxz     :     0.000274
      dyz     :    -0.000004
      dx2y2   :    -0.000007
      dxy     :     0.000246
      f0      :     0.000002  f :     0.000041
      f+1     :     0.000025
      f-1     :     0.000002
      f+2     :     0.000003
      f-2     :     0.000004
      f+3     :     0.000002
      f-3     :     0.000004

  3 O s       :     0.000622  s :     0.000622
      pz      :     0.001974  p :     0.004509
      px      :     0.001075
      py      :     0.001459
      dz2     :    -0.000005  d :    -0.000029
      dxz     :    -0.000007
      dyz     :    -0.000001
      dx2y2   :    -0.000006
      dxy     :    -0.000009
      f0      :    -0.000000  f :    -0.000003
      f+1     :    -0.000001
      f-1     :     0.000000
      f+2     :    -0.000000
      f-2     :    -0.000001
      f+3     :    -0.000000
      f-3     :    -0.000000

  4 C s       :     0.000364  s :     0.000364
      pz      :    -0.006167  p :    -0.018845
      px      :    -0.001581
      py      :    -0.011096
      dz2     :     0.002342  d :     0.008420
      dxz     :     0.001346
      dyz     :    -0.000050
      dx2y2   :     0.001336
      dxy     :     0.003446
      f0      :     0.000013  f :     0.000406
      f+1     :     0.000146
      f-1     :     0.000009
      f+2     :     0.000107
      f-2     :     0.000034
      f+3     :     0.000045
      f-3     :     0.000052

  5 C s       :     0.036521  s :     0.036521
      pz      :     0.101014  p :     0.334297
      px      :     0.007860
      py      :     0.225423
      dz2     :     0.005036  d :     0.006362
      dxz     :     0.000153
      dyz     :    -0.000151
      dx2y2   :     0.002871
      dxy     :    -0.001548
      f0      :     0.000249  f :    -0.000354
      f+1     :    -0.000006
      f-1     :    -0.000221
      f+2     :    -0.000078
      f-2     :    -0.000098
      f+3     :    -0.000112
      f-3     :    -0.000088

  6 C s       :     0.009469  s :     0.009469
      pz      :     0.048974  p :     0.207801
      px      :     0.007610
      py      :     0.151218
      dz2     :     0.006873  d :     0.009736
      dxz     :    -0.000233
      dyz     :     0.001791
      dx2y2   :     0.001121
      dxy     :     0.000183
      f0      :     0.000409  f :     0.000296
      f+1     :     0.000095
      f-1     :    -0.000159
      f+2     :     0.000020
      f-2     :    -0.000077
      f+3     :    -0.000047
      f-3     :     0.000055

  7 C s       :    -0.023364  s :    -0.023364
      pz      :    -0.029554  p :    -0.070339
      px      :     0.006584
      py      :    -0.047370
      dz2     :     0.001499  d :     0.013506
      dxz     :     0.003798
      dyz     :     0.000356
      dx2y2   :     0.002119
      dxy     :     0.005735
      f0      :     0.000295  f :     0.000762
      f+1     :     0.000064
      f-1     :     0.000040
      f+2     :     0.000089
      f-2     :     0.000023
      f+3     :     0.000118
      f-3     :     0.000132

  8 N s       :    -0.002329  s :    -0.002329
      pz      :     0.026943  p :     0.092201
      px      :    -0.000880
      py      :     0.066137
      dz2     :     0.000050  d :     0.004336
      dxz     :     0.001290
      dyz     :    -0.000144
      dx2y2   :     0.000324
      dxy     :     0.002816
      f0      :     0.000010  f :     0.000061
      f+1     :     0.000093
      f-1     :    -0.000041
      f+2     :    -0.000017
      f-2     :    -0.000023
      f+3     :     0.000036
      f-3     :     0.000003

  9 C s       :     0.001008  s :     0.001008
      pz      :     0.027206  p :     0.065805
      px      :    -0.021777
      py      :     0.060376
      dz2     :    -0.000388  d :    -0.003400
      dxz     :    -0.000135
      dyz     :    -0.000749
      dx2y2   :     0.000437
      dxy     :    -0.002566
      f0      :     0.000064  f :    -0.000073
      f+1     :     0.000046
      f-1     :    -0.000043
      f+2     :     0.000003
      f-2     :    -0.000066
      f+3     :    -0.000016
      f-3     :    -0.000061

 10 C s       :     0.009225  s :     0.009225
      pz      :     0.063108  p :     0.226503
      px      :     0.017846
      py      :     0.145549
      dz2     :    -0.000445  d :    -0.004035
      dxz     :    -0.000786
      dyz     :    -0.000588
      dx2y2   :    -0.000767
      dxy     :    -0.001448
      f0      :    -0.000016  f :    -0.000485
      f+1     :    -0.000034
      f-1     :    -0.000107
      f+2     :    -0.000081
      f-2     :    -0.000064
      f+3     :    -0.000075
      f-3     :    -0.000109

 11 C s       :    -0.000098  s :    -0.000098
      pz      :    -0.012436  p :    -0.040520
      px      :    -0.014501
      py      :    -0.013583
      dz2     :     0.001328  d :     0.007113
      dxz     :     0.001938
      dyz     :     0.000091
      dx2y2   :     0.001581
      dxy     :     0.002175
      f0      :     0.000112  f :     0.000321
      f+1     :     0.000068
      f-1     :     0.000016
      f+2     :     0.000061
      f-2     :    -0.000013
      f+3     :     0.000037
      f-3     :     0.000039

 12 C s       :    -0.013854  s :    -0.013854
      pz      :    -0.036185  p :    -0.106207
      px      :    -0.006675
      py      :    -0.063346
      dz2     :     0.001682  d :     0.009389
      dxz     :     0.001595
      dyz     :     0.000987
      dx2y2   :     0.000324
      dxy     :     0.004802
      f0      :     0.000144  f :     0.000571
      f+1     :     0.000040
      f-1     :     0.000043
      f+2     :     0.000058
      f-2     :     0.000050
      f+3     :     0.000092
      f-3     :     0.000144

 13 C s       :     0.011625  s :     0.011625
      pz      :     0.053316  p :     0.199430
      px      :     0.010041
      py      :     0.136073
      dz2     :    -0.000624  d :    -0.002303
      dxz     :    -0.000169
      dyz     :    -0.000619
      dx2y2   :    -0.000161
      dxy     :    -0.000730
      f0      :    -0.000049  f :    -0.000392
      f+1     :    -0.000026
      f-1     :    -0.000098
      f+2     :    -0.000057
      f-2     :    -0.000078
      f+3     :    -0.000053
      f-3     :    -0.000031

 14 O s       :    -0.000628  s :    -0.000628
      pz      :     0.000015  p :    -0.000180
      px      :     0.000017
      py      :    -0.000212
      dz2     :    -0.000003  d :    -0.000011
      dxz     :    -0.000005
      dyz     :    -0.000003
      dx2y2   :    -0.000000
      dxy     :    -0.000000
      f0      :    -0.000000  f :    -0.000000
      f+1     :    -0.000000
      f-1     :     0.000000
      f+2     :    -0.000000
      f-2     :    -0.000000
      f+3     :     0.000000
      f-3     :     0.000000

 15 H s       :    -0.000027  s :    -0.000027
      pz      :    -0.000002  p :    -0.000003
      px      :     0.000001
      py      :    -0.000001

 16 H s       :    -0.000173  s :    -0.000173
      pz      :    -0.000055  p :     0.000094
      px      :     0.000038
      py      :     0.000111

 17 H s       :    -0.000196  s :    -0.000196
      pz      :     0.000060  p :     0.000190
      px      :     0.000140
      py      :    -0.000011

 18 H s       :    -0.001123  s :    -0.001123
      pz      :     0.000020  p :     0.000262
      px      :     0.000041
      py      :     0.000200

 19 H s       :     0.008606  s :     0.008606
      pz      :    -0.000113  p :    -0.000270
      px      :    -0.000080
      py      :    -0.000077

 20 H s       :     0.001869  s :     0.001869
      pz      :     0.000012  p :    -0.000132
      px      :    -0.000087
      py      :    -0.000057

 21 H s       :    -0.008989  s :    -0.008989
      pz      :     0.000565  p :     0.002136
      px      :    -0.000014
      py      :     0.001586

 22 H s       :    -0.003315  s :    -0.003315
      pz      :     0.000420  p :     0.001531
      px      :    -0.000056
      py      :     0.001167

 23 H s       :    -0.011768  s :    -0.011768
      pz      :     0.000504  p :     0.001975
      px      :     0.000041
      py      :     0.001430

 24 H s       :     0.002763  s :     0.002763
      pz      :    -0.000075  p :    -0.000347
      px      :    -0.000026
      py      :    -0.000247

 25 H s       :     0.005450  s :     0.005450
      pz      :    -0.000285  p :    -0.000981
      px      :    -0.000075
      py      :    -0.000620

 26 H s       :    -0.010955  s :    -0.010955
      pz      :     0.000599  p :     0.001839
      px      :    -0.000056
      py      :     0.001295



                     *******************************
                     * LOEWDIN POPULATION ANALYSIS *
                     *******************************

-------------------------------------------
LOEWDIN ATOMIC CHARGES AND SPIN POPULATIONS
-------------------------------------------
   0 N :   -0.011657    0.014668
   1 C :   -0.222551    0.018691
   2 C :   -0.418001    0.000068
   3 O :    0.088810    0.004058
   4 C :   -0.141126    0.019229
   5 C :   -0.023795    0.290710
   6 C :    0.017463    0.212420
   7 C :   -0.110110   -0.016314
   8 N :    0.244319    0.099820
   9 C :   -0.107453    0.067582
  10 C :   -0.008508    0.153855
  11 C :   -0.039903    0.000760
  12 C :   -0.073552   -0.042119
  13 C :   -0.019411    0.150605
  14 O :    0.142801   -0.000165
  15 H :    0.119052   -0.000022
  16 H :    0.110405    0.000703
  17 H :    0.101076    0.001137
  18 H :    0.157119    0.000373
  19 H :    0.151962    0.004038
  20 H :    0.155202    0.001605
  21 H :    0.156974    0.005739
  22 H :    0.159363    0.004850
  23 H :    0.146711    0.005884
  24 H :    0.144790   -0.000968
  25 H :    0.138824   -0.002898
  26 H :    0.141197    0.005689

----------------------------------------------------
LOEWDIN REDUCED ORBITAL CHARGES AND SPIN POPULATIONS
----------------------------------------------------
CHARGE
  0 N s       :     2.954832  s :     2.954832
      pz      :     1.198719  p :     3.917287
      px      :     1.347699
      py      :     1.370869
      dz2     :     0.040366  d :     0.128136
      dxz     :     0.025204
      dyz     :     0.034177
      dx2y2   :     0.024352
      dxy     :     0.004038
      f0      :     0.002820  f :     0.011402
      f+1     :     0.002971
      f-1     :     0.002478
      f+2     :     0.001225
      f-2     :     0.000336
      f+3     :     0.000757
      f-3     :     0.000815

  1 C s       :     2.660049  s :     2.660049
      pz      :     0.938495  p :     2.979533
      px      :     1.031166
      py      :     1.009872
      dz2     :     0.133438  d :     0.530789
      dxz     :     0.118660
      dyz     :     0.120030
      dx2y2   :     0.061125
      dxy     :     0.097536
      f0      :     0.009268  f :     0.052181
      f+1     :     0.010915
      f-1     :     0.012832
      f+2     :     0.005937
      f-2     :     0.004194
      f+3     :     0.004211
      f-3     :     0.004825

  2 C s       :     2.691926  s :     2.691926
      pz      :     0.904190  p :     2.701998
      px      :     1.059568
      py      :     0.738241
      dz2     :     0.237936  d :     0.899272
      dxz     :     0.265448
      dyz     :     0.128103
      dx2y2   :     0.131092
      dxy     :     0.136694
      f0      :     0.018544  f :     0.124805
      f+1     :     0.041295
      f-1     :     0.013809
      f+2     :     0.014317
      f-2     :     0.012166
      f+3     :     0.011913
      f-3     :     0.012762

  3 O s       :     3.356978  s :     3.356978
      pz      :     1.595050  p :     4.486322
      px      :     1.535933
      py      :     1.355340
      dz2     :     0.010170  d :     0.062408
      dxz     :     0.020373
      dyz     :     0.003042
      dx2y2   :     0.017530
      dxy     :     0.011293
      f0      :     0.000541  f :     0.005482
      f+1     :     0.001491
      f-1     :     0.000014
      f+2     :     0.001316
      f-2     :     0.000558
      f+3     :     0.000860
      f-3     :     0.000702

  4 C s       :     2.666894  s :     2.666894
      pz      :     1.061307  p :     3.095675
      px      :     1.021948
      py      :     1.012420
      dz2     :     0.096079  d :     0.349350
      dxz     :     0.045375
      dyz     :     0.042355
      dx2y2   :     0.062073
      dxy     :     0.103467
      f0      :     0.003201  f :     0.029207
      f+1     :     0.003599
      f-1     :     0.003286
      f+2     :     0.005291
      f-2     :     0.004299
      f+3     :     0.004347
      f-3     :     0.005184

  5 C s       :     2.667108  s :     2.667108
      pz      :     0.944980  p :     2.845373
      px      :     1.050855
      py      :     0.849538
      dz2     :     0.098440  d :     0.467775
      dxz     :     0.111113
      dyz     :     0.064250
      dx2y2   :     0.098789
      dxy     :     0.095182
      f0      :     0.006201  f :     0.043538
      f+1     :     0.008121
      f-1     :     0.004755
      f+2     :     0.005327
      f-2     :     0.006155
      f+3     :     0.007618
      f-3     :     0.005361

  6 C s       :     2.700263  s :     2.700263
      pz      :     0.951436  p :     2.792713
      px      :     0.992669
      py      :     0.848608
      dz2     :     0.091050  d :     0.436212
      dxz     :     0.121244
      dyz     :     0.054707
      dx2y2   :     0.074605
      dxy     :     0.094606
      f0      :     0.005869  f :     0.053349
      f+1     :     0.011901
      f-1     :     0.003483
      f+2     :     0.007138
      f-2     :     0.007832
      f+3     :     0.007333
      f-3     :     0.009793

  7 C s       :     2.629526  s :     2.629526
      pz      :     0.995685  p :     2.964881
      px      :     1.023454
      py      :     0.945741
      dz2     :     0.098817  d :     0.469712
      dxz     :     0.123881
      dyz     :     0.068376
      dx2y2   :     0.086437
      dxy     :     0.092200
      f0      :     0.006663  f :     0.045992
      f+1     :     0.006939
      f-1     :     0.005431
      f+2     :     0.008502
      f-2     :     0.006646
      f+3     :     0.005773
      f-3     :     0.006036

  8 N s       :     2.846600  s :     2.846600
      pz      :     1.209771  p :     3.669096
      px      :     1.213694
      py      :     1.245631
      dz2     :     0.038214  d :     0.219468
      dxz     :     0.061271
      dyz     :     0.026836
      dx2y2   :     0.042866
      dxy     :     0.050281
      f0      :     0.001243  f :     0.020517
      f+1     :     0.005202
      f-1     :     0.001943
      f+2     :     0.003195
      f-2     :     0.003460
      f+3     :     0.002700
      f-3     :     0.002774

  9 C s       :     2.639820  s :     2.639820
      pz      :     0.927912  p :     2.856821
      px      :     1.046172
      py      :     0.882736
      dz2     :     0.101206  d :     0.551243
      dxz     :     0.159721
      dyz     :     0.064672
      dx2y2   :     0.102359
      dxy     :     0.123285
      f0      :     0.007810  f :     0.059569
      f+1     :     0.010044
      f-1     :     0.005220
      f+2     :     0.011579
      f-2     :     0.007819
      f+3     :     0.007890
      f-3     :     0.009208

 10 C s       :     2.691060  s :     2.691060
      pz      :     0.973145  p :     2.928821
      px      :     1.079969
      py      :     0.875706
      dz2     :     0.056842  d :     0.356746
      dxz     :     0.114062
      dyz     :     0.038744
      dx2y2   :     0.065442
      dxy     :     0.081657
      f0      :     0.004541  f :     0.031880
      f+1     :     0.004293
      f-1     :     0.003735
      f+2     :     0.006385
      f-2     :     0.003341
      f+3     :     0.003637
      f-3     :     0.005948

 11 C s       :     2.687987  s :     2.687987
      pz      :     1.000851  p :     2.974053
      px      :     1.050327
      py      :     0.922876
      dz2     :     0.058249  d :     0.345569
      dxz     :     0.102863
      dyz     :     0.039643
      dx2y2   :     0.068257
      dxy     :     0.076558
      f0      :     0.004501  f :     0.032293
      f+1     :     0.004107
      f-1     :     0.003889
      f+2     :     0.006215
      f-2     :     0.003395
      f+3     :     0.004011
      f-3     :     0.006176

 12 C s       :     2.698018  s :     2.698018
      pz      :     1.002735  p :     2.995436
      px      :     1.066571
      py      :     0.926130
      dz2     :     0.055793  d :     0.348404
      dxz     :     0.112816
      dyz     :     0.043207
      dx2y2   :     0.064447
[...]

 -----------------------------------------------------------
 Nucleus  18H : A  : Isotope=    1 I=  0.5 P=533.5514 MHz/au**3 
                Q  : Isotope=    2 I=  1.0 Q=  0.0029 barn      
                HFC: iso  =YES dip=YES orb=YES gauge=YES    
                EFG: fgrad= NO rho= NO                      
 -----------------------------------------------------------

 Total HFC matrix (all values in MHz): 
 ----------------------------------------------------------------
                -2.6958              -0.5363               0.4748
                -0.5373               0.1350               1.2945
                 0.4743               1.2958              -4.4806

 A(FC)          -2.3472              -2.3472              -2.3472
 A(SD)           2.8707              -0.2413              -2.6294
 A(ORB+DIA)      0.0006              -0.0007               0.0002    A(PC) =    0.0000
 A(ORB)          0.0003              -0.0010               0.0002    A(PC) =   -0.0002
 A(DIA)          0.0003               0.0003               0.0001    A(PC) =    0.0002
             ----------           ----------           ----------
 A(Tot)          0.5241              -2.5891              -4.9764    A(iso)=   -2.3471
 Orientation: 
  X           0.1255768            0.9586270           -0.2554696
  Y          -0.9632913            0.0562321           -0.2625029
  Z          -0.2372768            0.2790559            0.9304985

Notes:  (1) The A matrix conforms to the "SAI" spin Hamiltonian convention.
        (2) Tensor is right-handed.

 -----------------------------------------------------------
 Nucleus  19H : A  : Isotope=    1 I=  0.5 P=533.5514 MHz/au**3 
                Q  : Isotope=    2 I=  1.0 Q=  0.0029 barn      
                HFC: iso  =YES dip=YES orb=YES gauge=YES    
                EFG: fgrad= NO rho= NO                      
 -----------------------------------------------------------

 Total HFC matrix (all values in MHz): 
 ----------------------------------------------------------------
                17.0084              -0.6284              -2.3511
                -0.6305              15.7982               2.2171
                -2.3541               2.2148              19.9583

 A(FC)          17.5869              17.5869              17.5869
 A(SD)          -2.8438              -1.6347               4.4785
 A(ORB+DIA)     -0.0002               0.0013               0.0031    A(PC) =    0.0014
 A(ORB)         -0.0002               0.0010               0.0025    A(PC) =    0.0011
 A(DIA)          0.0000               0.0002               0.0005    A(PC) =    0.0003
             ----------           ----------           ----------
 A(Tot)         14.7429              15.9535              22.0685    A(iso)=   17.5883
 Orientation: 
  X          -0.2586064            0.8646108            0.4307795
  Y           0.8415599            0.4205864           -0.3389455
  Z          -0.4742359            0.2748732           -0.8363881

Notes:  (1) The A matrix conforms to the "SAI" spin Hamiltonian convention.
        (2) Tensor is right-handed.

 -----------------------------------------------------------
 Nucleus  20H : A  : Isotope=    1 I=  0.5 P=533.5514 MHz/au**3 
                Q  : Isotope=    2 I=  1.0 Q=  0.0029 barn      
                HFC: iso  =YES dip=YES orb=YES gauge=YES    
                EFG: fgrad= NO rho= NO                      
 -----------------------------------------------------------

 Total HFC matrix (all values in MHz): 
 ----------------------------------------------------------------
                13.3820              -0.2780              -2.8166
                -0.2787               6.1283               0.2283
                -2.8153               0.2284               7.7600

 A(FC)           9.0902               9.0902               9.0902
 A(SD)          -2.9974              -2.4757               5.4731
 A(ORB+DIA)     -0.0003              -0.0006               0.0007    A(PC) =   -0.0001
 A(ORB)         -0.0002              -0.0006               0.0001    A(PC) =   -0.0002
 A(DIA)         -0.0001               0.0000               0.0006    A(PC) =    0.0002
             ----------           ----------           ----------
 A(Tot)          6.0925               6.6139              14.5640    A(iso)=    9.0901
 Orientation: 
  X          -0.0416886           -0.3832240           -0.9227142
  Y           0.9779948           -0.2046030            0.0407901
  Z          -0.2044219           -0.9007092            0.3833207

Notes:  (1) The A matrix conforms to the "SAI" spin Hamiltonian convention.
        (2) Tensor is right-handed.

 -----------------------------------------------------------
 Nucleus  21H : A  : Isotope=    1 I=  0.5 P=533.5514 MHz/au**3 
                Q  : Isotope=    2 I=  1.0 Q=  0.0029 barn      
                HFC: iso  =YES dip=YES orb=YES gauge=YES    
                EFG: fgrad= NO rho= NO                      
 -----------------------------------------------------------

 Total HFC matrix (all values in MHz): 
 ----------------------------------------------------------------
               -14.9256               7.3967               9.7140
                 7.4047             -15.3966               2.9787
                 9.7242               2.9811             -17.3099

 A(FC)         -15.8811             -15.8811             -15.8811
 A(SD)          13.8617              -2.9987             -10.8630
 A(ORB+DIA)      0.0107              -0.0014               0.0018    A(PC) =    0.0037
 A(ORB)          0.0089              -0.0002               0.0019    A(PC) =    0.0035
 A(DIA)          0.0019              -0.0012              -0.0001    A(PC) =    0.0002
             ----------           ----------           ----------
 A(Tot)         -2.0087             -18.8811             -26.7423    A(iso)=  -15.8774
 Orientation: 
  X           0.6852804            0.1602633            0.7104270
  Y           0.4972581           -0.8156744           -0.2956512
  Z           0.5320951            0.5558695           -0.6386579

Notes:  (1) The A matrix conforms to the "SAI" spin Hamiltonian convention.
        (2) Tensor is right-handed.

 -----------------------------------------------------------
 Nucleus  22H : A  : Isotope=    1 I=  0.5 P=533.5514 MHz/au**3 
                Q  : Isotope=    2 I=  1.0 Q=  0.0029 barn      
                HFC: iso  =YES dip=YES orb=YES gauge=YES    
                EFG: fgrad= NO rho= NO                      
 -----------------------------------------------------------

 Total HFC matrix (all values in MHz): 
 ----------------------------------------------------------------
               -16.6311              -2.9288              -3.2321
                -2.9330              -9.3635               5.7400
                -3.2386               5.7390              -2.6813

 A(FC)          -9.5644              -9.5644              -9.5644
 A(SD)          11.1725              -2.9417              -8.2308
 A(ORB+DIA)      0.0110              -0.0011               0.0075    A(PC) =    0.0058
 A(ORB)          0.0092              -0.0001               0.0076    A(PC) =    0.0055
 A(DIA)          0.0018              -0.0010              -0.0001    A(PC) =    0.0002
             ----------           ----------           ----------
 A(Tot)          1.6190             -12.5072             -17.7878    A(iso)=   -9.5587
 Orientation: 
  X          -0.2281078           -0.1658961           -0.9593984
  Y           0.4981066            0.8267785           -0.2613944
  Z           0.8365743           -0.5375088           -0.1059607

Notes:  (1) The A matrix conforms to the "SAI" spin Hamiltonian convention.
        (2) Tensor is right-handed.

 -----------------------------------------------------------
 Nucleus  23H : A  : Isotope=    1 I=  0.5 P=533.5514 MHz/au**3 
                Q  : Isotope=    2 I=  1.0 Q=  0.0029 barn      
                HFC: iso  =YES dip=YES orb=YES gauge=YES    
                EFG: fgrad= NO rho= NO                      
 -----------------------------------------------------------

 Total HFC matrix (all values in MHz): 
 ----------------------------------------------------------------
               -18.9219              -3.9002              -5.2602
                -3.8978             -14.6248               2.7889
                -5.2572               2.7893              -9.8575

 A(FC)         -14.4700             -14.4700             -14.4700
 A(SD)           8.9917              -1.2393              -7.7523
 A(ORB+DIA)     -0.0001              -0.0003               0.0062    A(PC) =    0.0019
 A(ORB)         -0.0015               0.0002               0.0060    A(PC) =    0.0016
 A(DIA)          0.0014              -0.0005               0.0002    A(PC) =    0.0004
             ----------           ----------           ----------
 A(Tot)         -5.4784             -15.7096             -22.2161    A(iso)=  -14.4681
 Orientation: 
  X          -0.4341921           -0.1465740           -0.8888156
  Y           0.4269596            0.8353230           -0.3463251
  Z           0.7932104           -0.5298600           -0.3001095

Notes:  (1) The A matrix conforms to the "SAI" spin Hamiltonian convention.
        (2) Tensor is right-handed.

 -----------------------------------------------------------
 Nucleus  24H : A  : Isotope=    1 I=  0.5 P=533.5514 MHz/au**3 
                Q  : Isotope=    2 I=  1.0 Q=  0.0029 barn      
                HFC: iso  =YES dip=YES orb=YES gauge=YES    
                EFG: fgrad= NO rho= NO                      
 -----------------------------------------------------------

 Total HFC matrix (all values in MHz): 
 ----------------------------------------------------------------
                 2.3536               0.7839               0.5262
                 0.7824               1.1223               1.7522
                 0.5243               1.7520               2.4788

 A(FC)           1.9861               1.9861               1.9861
 A(SD)          -2.1177              -0.0165               2.1343
 A(ORB+DIA)     -0.0000              -0.0041               0.0005    A(PC) =   -0.0012
 A(ORB)         -0.0001              -0.0045               0.0003    A(PC) =   -0.0014
 A(DIA)          0.0001               0.0004               0.0002    A(PC) =    0.0002
             ----------           ----------           ----------
 A(Tot)         -0.1317               1.9655               4.1208    A(iso)=    1.9849
 Orientation: 
  X          -0.1511502            0.8801395           -0.4500090
  Y           0.8346239           -0.1303031           -0.5351860
  Z          -0.5296759           -0.4564817           -0.7148901

Notes:  (1) The A matrix conforms to the "SAI" spin Hamiltonian convention.
        (2) Tensor is right-handed.

 -----------------------------------------------------------
 Nucleus  25H : A  : Isotope=    1 I=  0.5 P=533.5514 MHz/au**3 
                Q  : Isotope=    2 I=  1.0 Q=  0.0029 barn      
                HFC: iso  =YES dip=YES orb=YES gauge=YES    
                EFG: fgrad= NO rho= NO                      
 -----------------------------------------------------------

 Total HFC matrix (all values in MHz): 
 ----------------------------------------------------------------
                 8.6034              -0.2888              -1.7543
                -0.2891               4.0458               0.4311
                -1.7554               0.4310               4.9153

 A(FC)           5.8549               5.8549               5.8549
 A(SD)          -2.0519              -1.4351               3.4870
 A(ORB+DIA)      0.0003               0.0017              -0.0022    A(PC) =   -0.0001
 A(ORB)         -0.0001               0.0017              -0.0025    A(PC) =   -0.0003
 A(DIA)          0.0004               0.0000               0.0003    A(PC) =    0.0002
             ----------           ----------           ----------
 A(Tot)          3.8033               4.4214               9.3397    A(iso)=    5.8548
 Orientation: 
  X          -0.1563850           -0.3494576           -0.9238090
  Y           0.8124631           -0.5773762            0.0808733
  Z          -0.5616472           -0.7379133            0.3742144

Notes:  (1) The A matrix conforms to the "SAI" spin Hamiltonian convention.
        (2) Tensor is right-handed.

 -----------------------------------------------------------
 Nucleus  26H : A  : Isotope=    1 I=  0.5 P=533.5514 MHz/au**3 
                Q  : Isotope=    2 I=  1.0 Q=  0.0029 barn      
                HFC: iso  =YES dip=YES orb=YES gauge=YES    
                EFG: fgrad= NO rho= NO                      
 -----------------------------------------------------------

 Total HFC matrix (all values in MHz): 
 ----------------------------------------------------------------
                -4.6147               2.2511               0.8683
                 2.2517             -16.3276              -3.7520
                 0.8687              -3.7520             -20.0131

 A(FC)         -13.6539             -13.6539             -13.6539
 A(SD)           9.4566              -0.5454              -8.9112
 A(ORB+DIA)      0.0023              -0.0008               0.0047    A(PC) =    0.0021
 A(ORB)          0.0011               0.0001               0.0049    A(PC) =    0.0020
 A(DIA)          0.0012              -0.0009              -0.0002    A(PC) =    0.0000
             ----------           ----------           ----------
 A(Tot)         -4.1949             -14.2001             -22.5604    A(iso)=  -13.6518
 Orientation: 
  X           0.9837890           -0.1429885           -0.1082290
  Y           0.1789573            0.8216817            0.5411224
  Z           0.0115555           -0.5517186            0.8339503

Notes:  (1) The A matrix conforms to the "SAI" spin Hamiltonian convention.
        (2) Tensor is right-handed.


Hyperfine and quadrupole coupling calculation done in  39.3 sec 

Maximum memory used throughout the entire PROP-calculation: 151.9 MB

--------------------------------
SUGGESTED CITATIONS FOR THIS RUN
--------------------------------

Below you find a list of papers that are relevant to this ORCA run
We neither can nor want to force you to cite these papers, but we appreciate if you do
You receive ORCA, which is the product of decades of hard work by many enthusiastic individuals, for free
The only thing we kindly ask in return is that you cite our papers,
We deeply appreciate it, if you show your appreciation for ORCA by not just citing the generic ORCA reference.

Please note that relegating all ORCA citations to the supporting information does *not* help us.
SI sections are not indexed - citations you put there will not count into any citation statistics
But we need these citations in order to attract the funding resources that allow us to do what we are doing

Therefore, if you are a happy ORCA user, please consider citing a few of the papers listed below in the main body of your paper

In addition to the list printed below, the program has created the file TrpC-dihedral-A.bibtex that contains the list in bibtex format
You can import this file easily into all common literature databanks and citation aid programs


List of essential papers. We consider these as the minimum necessary citations

  1. Neese,F.
     Software update: the ORCA program system, version 5.0
     WIRES Comput. Molec. Sci., 2022 12(1)e1606
     doi.org/10.1002/wcms.1606

List of papers to cite with high priority. The work reported in these papers was absolutely
necessary for this run to complete.
Our perspective: the developers of density functionals and basis sets usually get cited in chemistry papers
Good! But without the algorithms to do something with them, the functionals or basis sets would not do anything.
Hence, in our opinion, the algorithm design and method developments papers are equally worthy of getting cited

  1. Neese,F.
     An improvement of the resolution of the identity approximation for the formation of the Coulomb matrix
     J. Comp. Chem., 2003 24(14)1740-1747
     doi.org/10.1002/jcc.10318
  2. Neese,F.
     Metal and ligand hyperfine couplings in transition metal complexes: The effect of spin-orbit coupling as studied by coupled perturbed Kohn-Sham theory
     J. Chem. Phys., 2003 118(9)3939-3948
     doi.org/10.1063/1.1540619
  3. Neese,F.; Wennmohs,F.; Hansen,A.; Becker,U.
     Efficient, approximate and parallel Hartree-Fock and hybrid DFT calculations. A 'chain-of-spheres' algorithm for the Hartree-Fock exchange
     Chem. Phys., 2009 356(1-3)98-109
     doi.org/10.1016/j.chemphys.2008.10.036
  4. Helmich-Paris,B.; de Souza,B.; Neese,F.; Izsák,R.
     An improved chain of spheres for exchange algorithm
     J. Chem. Phys., 2021 155 104109
     doi.org/doi: 10.1063/5.0058766.
  5. Neese,F.
     The SHARK Integral Generation and Digestion System
     J. Comp. Chem., 2022  1-16
     doi.org/10.1002/jcc.26942
  6. Caldeweyher,E.; Bannwarth,C.; Grimme,S.
     Extension of the D3 dispersion coefficient model
     J. Chem. Phys., 2017 147 034112-XXXX
     doi.org/10.1063/1.4993215
  7. Caldeweyher,E.; Ehlert,S.; Hansen,A.; Neugebauer,H.; Spicher,S.; Bannwarth,C.; Grimme,S.
     A generally applicable atomic-charge dependent London dispersion correction
     J. Chem. Phys., 2019 150 154122-XXXX
     doi.org/10.1063/1.5090222
  8. Caldeweyher,E.; Mewes,J.; Ehlert,S.; Grimme,S.
     Extension and evaluation of the D4 London-dispersion model for periodic systems
     Phys. Chem. Chem. Phys., 2020 22(16)8499-8512
     doi.org/10.1039/D0CP00502A

List of suggested additional citations. These are papers that are important in the 'surrounding' of 
of this run, or papers that preceded the highly important papers. If you like your results we are grateful for a citation.

  1. Neese,F.
     Theoretical study of ligand superhyperfine structure. Application to Cu(II) complexes
     J. Phys. Chem. A, 2001 105(17)4290-4299
     doi.org/10.1021/jp003254f
  2. Izsak,R.; Neese,F.
     An overlap fitted chain of spheres exchange method
     J. Chem. Phys., 2011 135 144105
     doi.org/10.1063/1.3646921
  3. Izsak,R.; Hansen,A.; Neese,F.
     The resolution of identity and chain of spheres approximations for the LPNO-CCSD singles Fock term
     Molec. Phys., 2012 110 2413-2417
     doi.org/10.1080/00268976.2012.687466
  4. Neese,F.
     The ORCA program system
     WIRES Comput. Molec. Sci., 2012 2(1)73-78
     doi.org/10.1002/wcms.81
  5. Izsak,R.; Neese,F.; Klopper,W.
     Robust fitting techniques in the chain of spheres approximation to the Fock exchange: The role of the complementary space
     J. Chem. Phys., 2013 139 
     doi.org/10.1063/1.4819264
  6. Neese,F.
     Software update: the ORCA program system, version 4.0
     WIRES Comput. Molec. Sci., 2018 8(1)1-6
     doi.org/10.1002/wcms.1327
  7. Neese,F.; Wennmohs,F.; Becker,U.; Riplinger,C.
     The ORCA quantum chemistry program package
     J. Chem. Phys., 2020 152 Art. No. L224108
     doi.org/10.1063/5.0004608

List of optional additional citations

  1. Neese,F.
     Approximate second-order SCF convergence for spin unrestricted wavefunctions
     Chem. Phys. Lett., 2000 325(1-3)93-98
     doi.org/10.1016/s0009-2614(00)00662-x

Timings for individual modules:

Sum of individual times          ...      517.383 sec (=   8.623 min)
Startup calculation              ...        3.812 sec (=   0.064 min)   0.7 %
SCF iterations                   ...      206.033 sec (=   3.434 min)  39.8 %
Property integrals               ...       13.697 sec (=   0.228 min)   2.6 %
SCF Response                     ...      253.026 sec (=   4.217 min)  48.9 %
Property calculations            ...       40.815 sec (=   0.680 min)   7.9 %
                             ****ORCA TERMINATED NORMALLY****
TOTAL RUN TIME: 0 days 0 hours 8 minutes 38 seconds 407 msec
