
                                 *****************
                                 * O   R   C   A *
                                 *****************

                                            #,                                       
                                            ###                                      
                                            ####                                     
                                            #####                                    
                                            ######                                   
                                           ########,                                 
                                     ,,################,,,,,                         
                               ,,#################################,,                 
                          ,,##########################################,,             
                       ,#########################################, ''#####,          
                    ,#############################################,,   '####,        
                  ,##################################################,,,,####,       
                ,###########''''           ''''###############################       
              ,#####''   ,,,,##########,,,,          '''####'''          '####       
            ,##' ,,,,###########################,,,                        '##       
           ' ,,###''''                  '''############,,,                           
         ,,##''                                '''############,,,,        ,,,,,,###''
      ,#''                                            '''#######################'''  
     '                                                          ''''####''''         
             ,#######,   #######,   ,#######,      ##                                
            ,#'     '#,  ##    ##  ,#'     '#,    #''#        ,####,   ,####,        
            ##       ##  ##   ,#'  ##            #'  '#       #'       #'  '#        
            ##       ##  #######   ##           ,######,      #####,   #    #        
            '#,     ,#'  ##    ##  '#,     ,#' ,#      #,     #,   #   #,  ,#        
             '#######'   ##     ##  '#######'  #'      '#     '####' # '####'        



                #########################################################
                #                        -***-                          #
                #          Department of theory and spectroscopy        #
                #                                                       #
                #                      Frank Neese                      #
                #                                                       #
                #     Directorship, Architecture, Infrastructure        #
                #                    SHARK, DRIVERS                     #
                #        Core code/Algorithms in most modules           #
                #                                                       #
                #        Max Planck Institute fuer Kohlenforschung      #
                #                Kaiser Wilhelm Platz 1                 #
                #                 D-45470 Muelheim/Ruhr                 #
                #                      Germany                          #
                #                                                       #
                #                  All rights reserved                  #
                #                        -***-                          #
                #########################################################


                         Program Version 6.0.0  -   RELEASE  -


 With contributions from (in alphabetic order):
   Daniel Aravena         : Magnetic Suceptibility
   Michael Atanasov       : Ab Initio Ligand Field Theory (pilot matlab implementation)
   Alexander A. Auer      : GIAO ZORA, VPT2 properties, NMR spectrum
   Ute Becker             : All parallelization in ORCA, NUMFREQ, NUMCALC
   Giovanni Bistoni       : ED, misc. LED, open-shell LED, HFLD
   Martin Brehm           : Molecular dynamics
   Dmytro Bykov           : pre 5.0 version of the SCF Hessian
   Marcos Casanova-Páez   : Triplet and SCS-CIS(D). UHF-(DLPNO)-IP/EA/STEOM-CCSD. UHF-CVS-IP/STEOM-CCSD
   Vijay G. Chilkuri      : MRCI spin determinant printing, contributions to CSF-ICE
   Pauline Colinet        : FMM embedding
   Dipayan Datta          : RHF DLPNO-CCSD density
   Achintya Kumar Dutta   : EOM-CC, STEOM-CC
   Nicolas Foglia         : Exact transition moments, OPA infrastructure, MCD improvements
   Dmitry Ganyushin       : Spin-Orbit,Spin-Spin,Magnetic field MRCI
   Miquel Garcia          : C-PCM and meta-GGA Hessian, CCSD/C-PCM, Gaussian charge scheme
   Tiago L. C. Gouveia    : GS-ROHF, GS-ROCIS
   Yang Guo               : DLPNO-NEVPT2, F12-NEVPT2, CIM, IAO-localization
   Andreas Hansen         : Spin unrestricted coupled pair/coupled cluster methods
   Ingolf Harden          : AUTO-CI MPn and infrastructure 
   Benjamin Helmich-Paris : MC-RPA, TRAH-(SCF,CASSCF), AVAS, COSX integrals, SCF dyn. polar.
   Lee Huntington         : MR-EOM, pCC
   Robert Izsak           : Overlap fitted RIJCOSX, COSX-SCS-MP3, EOM
   Riya Kayal             : Wick's Theorem for AUTO-CI, AUTO-CI UHF-CCSDT
   Emily Kempfer          : AUTO-CI, RHF CISDT and CCSDT
   Christian Kollmar      : KDIIS, OOCD, Brueckner-CCSD(T), CCSD density, CASPT2, CASPT2-K, improved NEVPT2
   Axel Koslowski         : Symmetry handling
   Simone Kossmann        : Meta GGA functionals, TD-DFT gradient, OOMP2, (MP2 Hessian; deprecated post 5.0)
   Lucas Lang             : DCDCAS
   Marvin Lechner         : AUTO-CI (C++ implementation), FIC-MRCC
   Spencer Leger          : CASSCF response
   Dagmar Lenk            : GEPOL surface, SMD, ORCA-2-JSON
   Dimitrios Liakos       : Extrapolation schemes; Compound Job, initial MDCI parallelization
   Dimitrios Manganas     : Further ROCIS development; embedding schemes. LFT, Crystal Embedding
   Dimitrios Pantazis     : SARC Basis sets
   Anastasios Papadopoulos: AUTO-CI, single reference methods and gradients
   Taras Petrenko         : pre 6.0 DFT Hessian and TD-DFT gradient, (ASA, deprecated), ECA, 1-Electron XAS/XES, NRVS
   Peter Pinski           : DLPNO-MP2, DLPNO-MP2 Gradient
   Christoph Reimann      : Effective Core Potentials
   Marius Retegan         : Local ZFS, SOC
   Christoph Riplinger    : Optimizer, TS searches, QM/MM, DLPNO-CCSD(T), (RO)-DLPNO pert. Triples
   Michael Roemelt        : Original ROCIS implementation
   Masaaki Saitow         : Open-shell DLPNO-CCSD energy and density
   Barbara Sandhoefer     : DKH picture change effects
   Kantharuban Sivalingam : CASSCF convergence/infrastructure, NEVPT2 and variants, FIC-MRCI
   Bernardo de Souza      : ESD, SOC TD-DFT
   Georgi Stoychev        : AutoAux, RI-MP2 NMR, DLPNO-MP2 response, X2C
   Van Anh Tran           : RI-MP2 g-tensors
   Willem Van den Heuvel  : Paramagnetic NMR
   Zikuan Wang            : NOTCH, Electric field optimization 
   Frank Wennmohs         : Technical directorship and infrastructure
   Hang Xu                : AUTO-CI-Response properties 


 We gratefully acknowledge several colleagues who have allowed us to
 interface, adapt or use parts of their codes:
   Stefan Grimme, W. Hujo, H. Kruse, P. Pracht,  : VdW corrections, initial TS optimization,
                  C. Bannwarth, S. Ehlert,         DFT functionals, gCP, sTDA/sTD-DF
                  L. Wittmann, M. Mueller
   Ed Valeev, F. Pavosevic, A. Kumar             : LibInt (2-el integral package), F12 methods
   Garnet Chan, S. Sharma, J. Yang, R. Olivares  : DMRG
   Ulf Ekstrom                                   : XCFun DFT Library
   Mihaly Kallay                                 : mrcc  (arbitrary order and MRCC methods)
   Frank Weinhold                                : gennbo (NPA and NBO analysis)
   Simon Mueller                                 : openCOSMO-RS
   Christopher J. Cramer and Donald G. Truhlar   : smd solvation model
   Lars Goerigk                                  : TD-DFT with DH, B97 family of functionals
   V. Asgeirsson, H. Jonsson                     : NEB implementation
   FAccTs GmbH                                   : IRC, NEB, NEB-TS, DLPNO-Multilevel, CI-OPT
                                                   MM, QMMM, 2- and 3-layer-ONIOM, Crystal-QMMM,
                                                   LR-CPCM, SF, NACMEs, symmetry and pop. for TD-DFT,
                                                   nearIR, NL-DFT gradient (VV10), updates on ESD,
                                                   ML-optimized integration grids, MBIS, APM,
                                                   GOAT, DOCKER, SOLVATOR, interface openCOSMO-RS
   S Lehtola, MJT Oliveira, MAL Marques          : LibXC Library
   Liviu Ungur et al                             : ANISO software


 Your calculation uses the libint2 library for the computation of 2-el integrals
 For citations please refer to: http://libint.valeyev.net

 Your ORCA version has been built with support for libXC version: 6.2.2
 For citations please refer to: https://libxc.gitlab.io

 This ORCA versions uses:
   CBLAS   interface :  Fast vector & matrix operations
   LAPACKE interface :  Fast linear algebra routines
   SCALAPACK package :  Parallel linear algebra routines
   Shared memory     :  Shared parallel matrices
   BLAS/LAPACK       :  OpenBLAS 0.3.27  USE64BITINT DYNAMIC_ARCH NO_AFFINITY SkylakeX SINGLE_THREADED
        Core in use  :  SkylakeX
   Copyright (c) 2011-2014, The OpenBLAS Project


Your calculation utilizes the atom-pairwise dispersion correction
based on EEQ partial charges (D4)


Warning: RI is on but no J-basis has been assigned. Assigning Def2/J (nothing to worry about!)
================================================================================

----- Orbital basis set information -----
Your calculation utilizes the basis: EPR-III
   V. Barone, in Recent Advances in Density Functional Methods, Part 1 (ed. D. P. Chong), World Scientific, Singapore, 1995, p. 287.
   N. Rega, M. Cossi and V. Barone, J. Chem. Phys. 105, 11060 (1996).

----- AuxJ basis set information -----
Your calculation utilizes the auxiliary basis: def2/J
   F. Weigend, Phys. Chem. Chem. Phys. 8, 1057 (2006).

================================================================================
                                        WARNINGS
                       Please study these warnings very carefully!
================================================================================


================================================================================
                                       INPUT FILE
================================================================================
NAME = TrpC-rotated-A.inp
|  1> !UKS wB97X-D4 EPR-III TightSCF
|  2> 
|  3> # Same as TrpC-dihedral-opt but rotated geometry
|  4> 
|  5> %pal
|  6>    nprocs 24
|  7> end
|  8> 
|  9> *xyz 1 2
| 10> N       13.18525047     -15.30694139       6.34165182
| 11> C       13.05015155     -15.38285425       4.89670705
| 12> C       14.33076846     -15.83599790       4.20048996
| 13> O       15.40768514     -15.84907470       4.72786330
| 14> C       12.66027700     -13.98828379       4.34283110
| 15> C       11.46691846     -13.51393894       5.08586110
| 16> C       11.50899930     -12.73528182       6.28558176
| 17> C       10.11722092     -13.88701382       4.91607705
| 18> N       10.29376083     -12.62248730       6.79151036
| 19> C        9.37648692     -13.32631672       5.98102013
| 20> C        9.45255764     -14.65565904       3.94382434
| 21> C        8.02610342     -13.49550656       6.12369248
| 22> C        8.08613410     -14.83788090       4.07307342
| 23> C        7.38720965     -14.26874487       5.14053330
| 24> O       14.10502622     -16.17639423       2.92264021
| 25> H       14.95052504     -16.43071765       2.52069039
| 26> H       14.14514555     -15.06596884       6.57491517
| 27> H       13.01269935     -16.21005098       6.76598401
| 28> H       12.25433855     -16.08681777       4.64135266
| 29> H       12.45666524     -14.05340577       3.27227777
| 30> H       13.49537730     -13.29760838       4.48871478
| 31> H       12.37227680     -12.28683465       6.75652387
| 32> H       10.06116479     -12.12195716       7.63680029
| 33> H        9.99572077     -15.08845606       3.11127714
| 34> H        7.46655361     -13.06444100       6.94549207
| 35> H        7.54722632     -15.42436502       3.33919178
| 36> H        6.31728120     -14.42600282       5.21558992
| 37> *
| 38> 
| 39> %eprnmr
| 40>     Nuclei = all N { aiso, adip, aorb }
| 41>     Nuclei = all H { aiso, adip, aorb }
| 42> end
| 43> 
| 44> 
| 45>                          ****END OF INPUT****
================================================================================

                       ****************************
                       * Single Point Calculation *
                       ****************************

---------------------------------
CARTESIAN COORDINATES (ANGSTROEM)
---------------------------------
  N     13.185250  -15.306941    6.341652
  C     13.050152  -15.382854    4.896707
  C     14.330768  -15.835998    4.200490
  O     15.407685  -15.849075    4.727863
  C     12.660277  -13.988284    4.342831
  C     11.466918  -13.513939    5.085861
  C     11.508999  -12.735282    6.285582
  C     10.117221  -13.887014    4.916077
  N     10.293761  -12.622487    6.791510
  C      9.376487  -13.326317    5.981020
  C      9.452558  -14.655659    3.943824
  C      8.026103  -13.495507    6.123692
  C      8.086134  -14.837881    4.073073
  C      7.387210  -14.268745    5.140533
  O     14.105026  -16.176394    2.922640
  H     14.950525  -16.430718    2.520690
  H     14.145146  -15.065969    6.574915
  H     13.012699  -16.210051    6.765984
  H     12.254339  -16.086818    4.641353
  H     12.456665  -14.053406    3.272278
  H     13.495377  -13.297608    4.488715
  H     12.372277  -12.286835    6.756524
  H     10.061165  -12.121957    7.636800
  H      9.995721  -15.088456    3.111277
  H      7.466554  -13.064441    6.945492
  H      7.547226  -15.424365    3.339192
  H      6.317281  -14.426003    5.215590

----------------------------
CARTESIAN COORDINATES (A.U.)
----------------------------
  NO LB      ZA    FRAG     MASS         X           Y           Z
   0 N     7.0000    0    14.007   24.916512  -28.925927   11.983985
   1 C     6.0000    0    12.011   24.661212  -29.069382    9.253435
   2 C     6.0000    0    12.011   27.081228  -29.925699    7.937776
   3 O     8.0000    0    15.999   29.116305  -29.950411    8.934367
   4 C     6.0000    0    12.011   23.924456  -26.434025    8.206761
   5 C     6.0000    0    12.011   21.669335  -25.537644    9.610885
   6 C     6.0000    0    12.011   21.748857  -24.066195   11.878028
   7 C     6.0000    0    12.011   19.118777  -26.242653    9.290039
   8 N     7.0000    0    14.007   19.452389  -23.853044   12.834095
   9 C     6.0000    0    12.011   17.718992  -25.183089   11.302490
  10 C     6.0000    0    12.011   17.862745  -27.695182    7.452748
  11 C     6.0000    0    12.011   15.167137  -25.502811   11.572102
  12 C     6.0000    0    12.011   15.280579  -28.039531    7.696993
  13 C     6.0000    0    12.011   13.959803  -26.964020    9.714200
  14 O     8.0000    0    15.999   26.654637  -30.568955    5.522990
  15 H     1.0000    0     1.008   28.252398  -31.049557    4.763415
  16 H     1.0000    0     1.008   26.730451  -28.470555   12.424789
  17 H     1.0000    0     1.008   24.590438  -30.632557   12.785857
  18 H     1.0000    0     1.008   23.157344  -30.399680    8.770885
  19 H     1.0000    0     1.008   23.539686  -26.557088    6.183709
  20 H     1.0000    0     1.008   25.502567  -25.128838    8.482442
  21 H     1.0000    0     1.008   23.380215  -23.218753   12.767980
  22 H     1.0000    0     1.008   19.012846  -22.907179   14.431461
  23 H     1.0000    0     1.008   18.889175  -28.513050    5.879462
  24 H     1.0000    0     1.008   14.109741  -24.688216   13.125078
  25 H     1.0000    0     1.008   14.262191  -29.147826    6.310158
  26 H     1.0000    0     1.008   11.937931  -27.261195    9.856037

--------------------------------
INTERNAL COORDINATES (ANGSTROEM)
--------------------------------
 N      0   0   0     0.000000000000     0.00000000     0.00000000
 C      1   0   0     1.453230838115     0.00000000     0.00000000
 C      2   1   0     1.526445896231   113.01780070     0.00000000
 O      3   2   1     1.199184380362   123.78431098   344.63355412
 C      2   1   3     1.550357217105   109.36651700   239.19104866
 C      5   2   1     1.483644574220   108.11597516   307.27073661
 C      6   5   2     1.430876434096   124.76675098    90.38538295
 C      6   5   2     1.410565467890   128.66697384   281.54814128
 N      7   6   5     1.321170273283   109.90640810   188.05814064
 C      9   7   6     1.411970853577   109.58366037     0.80268845
 C      8   6   5     1.406366979885   132.84223229   351.14250056
 C     10   9   7     1.368399137126   130.00628443   179.23653430
 C     11   8   6     1.384566149236   118.28210028   179.89388380
 C     13  11   8     1.397097635408   120.75875127     0.17799258
 O      3   2   1     1.341539862983   111.62946035   166.47832783
 H     15   3   2     0.970109434229   108.33222769   178.38547960
 H      1   2   3     1.016797976451   109.16219453    30.98044652
 H      1   2   3     1.012639436341   110.74555304   274.61008504
 H      2   1   3     1.092743717874   109.49380322   120.75248202
 H      5   2   1     1.091688166769   110.09543224   185.72249890
 H      5   2   1     1.093483919008   109.17441902    67.18242618
 H      7   6   5     1.080804967262   127.92451045     7.76435927
 H      9   7   6     1.009527812708   125.09239376   179.87067492
 H     11   8   6     1.084192919429   120.81504332   359.49058282
 H     12  10   9     1.083636504098   122.64625370     0.32192847
 H     13  11   8     1.083036232028   119.93936784   179.95053711
 H     14  13  11     1.084025113714   119.18092684   179.86449312

---------------------------
INTERNAL COORDINATES (A.U.)
---------------------------
 N      0   0   0     0.000000000000     0.00000000     0.00000000
 C      1   0   0     2.746208293407     0.00000000     0.00000000
 C      2   1   0     2.884564702125   113.01780070     0.00000000
 O      3   2   1     2.266130062959   123.78431098   344.63355412
 C      2   1   3     2.929750550077   109.36651700   239.19104866
 C      5   2   1     2.803681925354   108.11597516   307.27073661
 C      6   5   2     2.703964591924   124.76675098    90.38538295
 C      6   5   2     2.665582428278   128.66697384   281.54814128
 N      7   6   5     2.496649992784   109.90640810   188.05814064
 C      9   7   6     2.668238222339   109.58366037     0.80268845
 C      8   6   5     2.657648435773   132.84223229   351.14250056
 C     10   9   7     2.585899611061   130.00628443   179.23653430
 C     11   8   6     2.616450836353   118.28210028   179.89388380
 C     13  11   8     2.640131913269   120.75875127     0.17799258
 O      3   2   1     2.535142938776   111.62946035   166.47832783
 H     15   3   2     1.833241150626   108.33222769   178.38547960
 H      1   2   3     1.921469709018   109.16219453    30.98044652
 H      1   2   3     1.913611207093   110.74555304   274.61008504
 H      2   1   3     2.064986361344   109.49380322   120.75248202
 H      5   2   1     2.062991658836   110.09543224   185.72249890
 H      5   2   1     2.066385138772   109.17441902    67.18242618
 H      7   6   5     2.042425392307   127.92451045     7.76435927
 H      9   7   6     1.907731090595   125.09239376   179.87067492
 H     11   8   6     2.048827694057   120.81504332   359.49058282
 H     12  10   9     2.047776221465   122.64625370     0.32192847
 H     13  11   8     2.046641871647   119.93936784   179.95053711
 H     14  13  11     2.048510587213   119.18092684   179.86449312

---------------------
BASIS SET INFORMATION
---------------------
There are 4 groups of distinct atoms

 Group   1 Type N   : 12s8p2d1f contracted to 8s5p2d1f pattern {51111111/41111/11/1}
 Group   2 Type C   : 12s8p2d1f contracted to 8s5p2d1f pattern {51111111/41111/11/1}
 Group   3 Type O   : 12s8p2d1f contracted to 8s5p2d1f pattern {51111111/41111/11/1}
 Group   4 Type H   : 7s2p contracted to 5s2p pattern {31111/11}

Atom   0N    basis set group =>   1
Atom   1C    basis set group =>   2
Atom   2C    basis set group =>   2
Atom   3O    basis set group =>   3
Atom   4C    basis set group =>   2
Atom   5C    basis set group =>   2
Atom   6C    basis set group =>   2
Atom   7C    basis set group =>   2
Atom   8N    basis set group =>   1
Atom   9C    basis set group =>   2
Atom  10C    basis set group =>   2
Atom  11C    basis set group =>   2
Atom  12C    basis set group =>   2
Atom  13C    basis set group =>   2
Atom  14O    basis set group =>   3
Atom  15H    basis set group =>   4
Atom  16H    basis set group =>   4
Atom  17H    basis set group =>   4
Atom  18H    basis set group =>   4
Atom  19H    basis set group =>   4
Atom  20H    basis set group =>   4
Atom  21H    basis set group =>   4
Atom  22H    basis set group =>   4
Atom  23H    basis set group =>   4
Atom  24H    basis set group =>   4
Atom  25H    basis set group =>   4
Atom  26H    basis set group =>   4
---------------------------------
AUXILIARY/J BASIS SET INFORMATION
---------------------------------
There are 4 groups of distinct atoms

 Group   1 Type N   : 12s5p4d2f1g contracted to 6s4p3d1f1g pattern {711111/2111/211/2/1}
 Group   2 Type C   : 12s5p4d2f1g contracted to 6s4p3d1f1g pattern {711111/2111/211/2/1}
 Group   3 Type O   : 12s5p4d2f1g contracted to 6s4p3d1f1g pattern {711111/2111/211/2/1}
 Group   4 Type H   : 5s2p1d contracted to 3s1p1d pattern {311/2/1}

Atom   0N    basis set group =>   1
Atom   1C    basis set group =>   2
Atom   2C    basis set group =>   2
Atom   3O    basis set group =>   3
Atom   4C    basis set group =>   2
Atom   5C    basis set group =>   2
Atom   6C    basis set group =>   2
Atom   7C    basis set group =>   2
Atom   8N    basis set group =>   1
Atom   9C    basis set group =>   2
Atom  10C    basis set group =>   2
Atom  11C    basis set group =>   2
Atom  12C    basis set group =>   2
Atom  13C    basis set group =>   2
Atom  14O    basis set group =>   3
Atom  15H    basis set group =>   4
Atom  16H    basis set group =>   4
Atom  17H    basis set group =>   4
Atom  18H    basis set group =>   4
Atom  19H    basis set group =>   4
Atom  20H    basis set group =>   4
Atom  21H    basis set group =>   4
Atom  22H    basis set group =>   4
Atom  23H    basis set group =>   4
Atom  24H    basis set group =>   4
Atom  25H    basis set group =>   4
Atom  26H    basis set group =>   4


           ************************************************************
           *        Program running with 24 parallel MPI-processes    *
           *              working on a common directory               *
           ************************************************************
------------------------------------------------------------------------------
                             ORCA STARTUP CALCULATIONS
                           -- RI-GTO INTEGRALS CHOSEN --
------------------------------------------------------------------------------
------------------------------------------------------------------------------
                   ___                                                        
                  /   \      - P O W E R E D   B Y -                         
                 /     \                                                     
                 |  |  |   _    _      __       _____    __    __             
                 |  |  |  | |  | |    /  \     |  _  \  |  |  /  |          
                  \  \/   | |  | |   /    \    | | | |  |  | /  /          
                 / \  \   | |__| |  /  /\  \   | |_| |  |  |/  /          
                |  |  |   |  __  | /  /__\  \  |    /   |      \           
                |  |  |   | |  | | |   __   |  |    \   |  |\   \          
                \     /   | |  | | |  |  |  |  | |\  \  |  | \   \       
                 \___/    |_|  |_| |__|  |__|  |_| \__\ |__|  \__/        
                                                                              
                      - O R C A' S   B I G   F R I E N D -                    
                                      &                                       
                       - I N T E G R A L  F E E D E R -                       
                                                                              
 v1 FN, 2020, v2 2021, v3 2022-2024                                           
------------------------------------------------------------------------------


----------------------
SHARK INTEGRAL PACKAGE
----------------------

Number of atoms                             ...     27
Number of basis functions                   ...    732
Number of shells                            ...    324
Maximum angular momentum                    ...      3
Integral batch strategy                     ... SHARK/LIBINT Hybrid
RI-J (if used) integral strategy            ... SPLIT-RIJ (Revised 2003 algorithm where possible)
Printlevel                                  ...      1
Contraction scheme used                     ... SEGMENTED contraction
Prescreening option                         ... SCHWARTZ
   Thresh                                   ... 2.500e-11
   Tcut                                     ... 2.500e-12
   Tpresel                                  ... 2.500e-12 
Coulomb Range Separation                    ... NOT USED
Exchange Range Separation                   ... Long Range
   Mu parameter                             ... 3.000e-01
   Scaling (regular/separated)              ... 1.670e-01 8.330e-01
Multipole approximations                    ... NOT USED
Finite Nucleus Model                        ... NOT USED
CABS basis                                  ... NOT available
Auxiliary Coulomb fitting basis             ... AVAILABLE
   # of basis functions in Aux-J            ...    867
   # of shells in Aux-J                     ...    285
   Maximum angular momentum in Aux-J        ...      4
Auxiliary J/K fitting basis                 ... NOT available
Auxiliary Correlation fitting basis         ... NOT available
Auxiliary 'external' fitting basis          ... NOT available

Checking pre-screening integrals            ... done (  0.0 sec) Dimension = 324
Check shell pair data                       ... done (  0.0 sec)
Shell pair information
Shell pair cut-off parameter TPreSel        ...   2.5e-12
Total number of shell pairs                 ...     52650
Shell pairs after pre-screening             ...     39759
Total number of primitive shell pairs       ...    103107
Primitive shell pairs kept                  ...     62072
          la=0 lb=0:  11106 shell pairs
          la=1 lb=0:  14044 shell pairs
          la=1 lb=1:   4283 shell pairs
          la=2 lb=0:   3968 shell pairs
          la=2 lb=1:   2479 shell pairs
          la=2 lb=2:    373 shell pairs
          la=3 lb=0:   1874 shell pairs
          la=3 lb=1:   1203 shell pairs
          la=3 lb=2:    339 shell pairs
          la=3 lb=3:     90 shell pairs

Calculating one electron integrals          ... done (  0.0 sec)
Calculating RI/J V-Matrix + Cholesky decomp.... done (  0.0 sec)
Calculating Nuclear repulsion               ... done (  0.0 sec) ENN=    955.935328486951 Eh

Diagonalization of the overlap matrix:
Smallest eigenvalue                        ... 3.703e-08
Time for diagonalization                   ...    0.072 sec
Threshold for overlap eigenvalues          ... 1.000e-07
Number of eigenvalues below threshold      ... 2
Smallest eigenvalue above threshold        ... 1.545e-07

IMPORTANT:
Smallest eigenvalue of S below the DiffSThresh (1.000e-06) while
Thresh>1e-12 and/or TCut>1e-13! In order to avoid SCF convergence issues,
Thresh will be set to at least 1e-12 and TCut to at least 1e-13.
This can be turned off by adding %SCF DiffSThresh -1 END to the input.

Time for construction of square roots      ...    0.035 sec
Total time needed                          ...    0.112 sec

-------------------
DFT GRID GENERATION
-------------------

General Integration Accuracy     IntAcc      ... 4.388
Radial Grid Type                 RadialGrid  ... OptM3 with GC (2021)
Angular Grid (max. ang.)         AngularGrid ... 4 (Lebedev-302)
Angular grid pruning method      GridPruning ... 4 (adaptive)
Weight generation scheme         WeightScheme... mBecke (2022)
Basis function cutoff            BFCut       ... 1.0000e-11
Integration weight cutoff        WCut        ... 1.0000e-14
Partially contracted basis set               ... off
Rotationally invariant grid construction     ... off
Angular grids for H and He will be reduced by one unit
Diffuse basis detected: some atoms will have their outermost
                        angular grid increased by 1.

Total number of grid points                  ...   134156
Total number of batches                      ...     2110
Average number of points per batch           ...       63
Average number of grid points per atom       ...     4969

--------------------
COSX GRID GENERATION
--------------------

GRIDX 1
-------
General Integration Accuracy     IntAcc      ... 3.816
Radial Grid Type                 RadialGrid  ... OptM3 with GC (2021)
Angular Grid (max. ang.)         AngularGrid ... 1 (Lebedev-50)
Angular grid pruning method      GridPruning ... 4 (adaptive)
Weight generation scheme         WeightScheme... mBecke (2022)
Basis function cutoff            BFCut       ... 1.0000e-11
Integration weight cutoff        WCut        ... 1.0000e-14
Partially contracted basis set               ... on
Rotationally invariant grid construction     ... off
Angular grids for H and He will be reduced by one unit
Diffuse basis detected: some atoms will have their outermost
                        angular grid increased by 1.

Total number of grid points                  ...    16826
Total number of batches                      ...      144
Average number of points per batch           ...      116
Average number of grid points per atom       ...      623
UseSFitting                                  ... on

GRIDX 2
-------
General Integration Accuracy     IntAcc      ... 4.020
Radial Grid Type                 RadialGrid  ... OptM3 with GC (2021)
Angular Grid (max. ang.)         AngularGrid ... 2 (Lebedev-110)
Angular grid pruning method      GridPruning ... 4 (adaptive)
Weight generation scheme         WeightScheme... mBecke (2022)
Basis function cutoff            BFCut       ... 1.0000e-11
Integration weight cutoff        WCut        ... 1.0000e-14
Partially contracted basis set               ... on
Rotationally invariant grid construction     ... off
Angular grids for H and He will be reduced by one unit
Diffuse basis detected: some atoms will have their outermost
                        angular grid increased by 1.

Total number of grid points                  ...    40521
Total number of batches                      ...      330
Average number of points per batch           ...      122
Average number of grid points per atom       ...     1501
UseSFitting                                  ... on

GRIDX 3
-------
General Integration Accuracy     IntAcc      ... 4.338
Radial Grid Type                 RadialGrid  ... OptM3 with GC (2021)
Angular Grid (max. ang.)         AngularGrid ... 3 (Lebedev-194)
Angular grid pruning method      GridPruning ... 4 (adaptive)
Weight generation scheme         WeightScheme... mBecke (2022)
Basis function cutoff            BFCut       ... 1.0000e-11
Integration weight cutoff        WCut        ... 1.0000e-14
Partially contracted basis set               ... on
Rotationally invariant grid construction     ... off
Angular grids for H and He will be reduced by one unit
Diffuse basis detected: some atoms will have their outermost
                        angular grid increased by 1.

Total number of grid points                  ...    89572
Total number of batches                      ...      716
Average number of points per batch           ...      125
Average number of grid points per atom       ...     3317
UseSFitting                                  ... on
Initializing property integral containers    ... done (  0.0 sec)

SHARK setup successfully completed in   2.1 seconds

Maximum memory used throughout the entire STARTUP-calculation: 66.5 MB


           ************************************************************
           *        Program running with 24 parallel MPI-processes    *
           *              working on a common directory               *
           ************************************************************
-------------------------------------------------------------------------------
                                 ORCA GUESS
                   Start orbitals & Density for SCF / CASSCF
-------------------------------------------------------------------------------

------------
SCF SETTINGS
------------
Hamiltonian:
 Density Functional     Method          .... DFT(GTOs)
 Exchange Functional    Exchange        .... WB97X-V
 Correlation Functional Correlation     .... WB97X-V
 Gradients option       PostSCFGGA      .... off
 Hybrid DFT is turned on
   Fraction HF Exchange ScalHFX         ....  0.167000
   Scaling of DF-GGA-X  ScalDFX         ....  0.000000
   Scaling of DF-GGA-C  ScalDFC         ....  1.000000
   Scaling of DF-LDA-C  ScalLDAC        ....  1.000000
   Perturbative correction              ....  0.000000
 Long-range corrected/Screened/Range-Separated Hybrid DFT is turned on
   Amount of maximum screened exact exchange              ....  0.833000
   Range separation parameter mu (erf(mu*r12)/r12)        ....  0.300000
 RI-approximation to the Coulomb term is turned on
   Number of AuxJ basis functions       .... 867
   RIJ-COSX (HFX calculated with COS-X)).... on


General Settings:
 Integral files         IntName         .... TrpC-rotated-A
 Hartree-Fock type      HFTyp           .... UHF
 Total Charge           Charge          ....    1
 Multiplicity           Mult            ....    2
 Number of Electrons    NEL             ....  107
 Basis Dimension        Dim             ....  732
 Nuclear Repulsion      ENuc            ....    955.9353284870 Eh

Convergence Acceleration:
 AO-DIIS                CNVDIIS         .... on
   Start iteration      DIISMaxIt       ....    12
   Startup error        DIISStart       ....  0.200000
   # of expansion vecs  DIISMaxEq       ....     5
   Bias factor          DIISBfac        ....   1.050
   Max. coefficient     DIISMaxC        ....  10.000
 MO-DIIS                CNVKDIIS        .... off
 Trust-Rad. Augm. Hess. CNVTRAH         .... auto
   Auto Start mean grad. ratio tolernc. ....  1.125000
   Auto Start start iteration           ....    50
   Auto Start num. interpolation iter.  ....    10
   Max. Number of Micro iterations      ....    24
   Max. Number of Macro iterations      .... Maxiter - #DIIS iter
   Number of Davidson start vectors     ....     2
   Converg. threshold    (grad. norm)   ....   1.000e-05
   Grad. Scal. Fac. for Micro threshold ....   0.100
   Minimum threshold for Micro iter.    ....   1.000e-02
   NR start threshold (gradient norm)   ....   1.000e-04
   Initial trust radius                 ....   0.400
   Minimum AH scaling param. (alpha)    ....   1.000
   Maximum AH scaling param. (alpha)    .... 1000.000
   Quad. conv. algorithm                .... NR
   White noise on init. David. guess    .... on
   Maximum white noise                  ....   0.010
   Pseudo random numbers                .... off
   Inactive MOs                         .... canonical
   Orbital update algorithm             .... Taylor
   Preconditioner                       .... Diag
   Full preconditioner red. dimension   ....   250
 SOSCF                  CNVSOSCF        .... on
   Start iteration      SOSCFMaxIt      ....   150
   Startup grad/error   SOSCFStart      ....  0.003300
   Hessian update       SOSCFHessUp     .... L-BFGS
 Level Shifting         CNVShift        .... on
   Level shift para.    LevelShift      ....    0.2500
   Turn off err/grad.   ShiftErr        ....    0.0010
 Zerner damping         CNVZerner       .... off
 Static damping         CNVDamp         .... on
   Fraction old density DampFac         ....    0.7000
   Max. Damping (<1)    DampMax         ....    0.9800
   Min. Damping (>=0)   DampMin         ....    0.0000
   Turn off err/grad.   DampErr         ....    0.1000

SCF Procedure:
 Maximum # iterations   MaxIter         ....   125
 SCF integral mode      SCFMode         .... Direct
   Integral package                     .... SHARK and LIBINT hybrid scheme
 Reset frequency        DirectResetFreq ....    20
 Integral Threshold     Thresh          ....  1.000e-12 Eh
 Primitive CutOff       TCut            ....  1.000e-13 Eh

Convergence Tolerance:
 Convergence Check Mode ConvCheckMode   .... Total+1el-Energy
 Convergence forced     ConvForced      .... 0
 Energy Change          TolE            ....  1.000e-08 Eh
 1-El. energy change                    ....  1.000e-05 Eh
 Orbital Gradient       TolG            ....  1.000e-05
 Orbital Rotation angle TolX            ....  1.000e-05
 DIIS Error             TolErr          ....  5.000e-07

------------------------------
INITIAL GUESS: MODEL POTENTIAL
------------------------------
Loading Hartree-Fock densities                     ... done
Calculating cut-offs                               ... done
Initializing the effective Hamiltonian             ... done
Setting up the integral package (SHARK)            ... done
Starting the Coulomb interaction                   ... done (   0.1 sec)
Making the grid                                    ... done (   0.2 sec)
Mapping shells                                     ... done
Starting the XC term evaluation                    ... done (   0.1 sec)
  promolecular density results
     # of electrons  =    107.997233430
     EX              =    -60.474715338
     EC              =     -4.510093546
     EX+EC           =    -64.984808885
Transforming the Hamiltonian                       ... done (   0.0 sec)
Diagonalizing the Hamiltonian                      ... done (   0.1 sec)
Back transforming the eigenvectors                 ... done (   0.0 sec)
Now organizing SCF variables                       ... done
                      ------------------
                      INITIAL GUESS DONE (   0.7 sec)
                      ------------------
             **** ENERGY FILE WAS UPDATED (TrpC-rotated-A.en.tmp) ****
Finished Guess after   1.4 sec
Maximum memory used throughout the entire GUESS-calculation: 57.5 MB


           ************************************************************
           *        Program running with 24 parallel MPI-processes    *
           *              working on a common directory               *
           ************************************************************

-------------------------------------------------------------------------------------------
                                      ORCA LEAN-SCF
                              memory conserving SCF solver
-------------------------------------------------------------------------------------------

----------------------------------------D-I-I-S--------------------------------------------
Iteration    Energy (Eh)           Delta-E    RMSDP     MaxDP     DIISErr   Damp  Time(sec)
-------------------------------------------------------------------------------------------
               ***  Starting incremental Fock matrix formation  ***
    1    -686.4496136217400135     0.00e+00  3.88e-03  9.83e-01  2.04e-01  0.700   6.8
    2    -686.5008416336578421    -5.12e-02  3.25e-03  8.06e-01  1.39e-01  0.700   4.1
                               ***Turning on AO-DIIS***
    3    -686.5309358817720522    -3.01e-02  2.34e-03  5.75e-01  9.60e-02  0.700   3.7
    4    -686.5504553800764143    -1.95e-02  5.68e-03  1.37e+00  6.67e-02  0.000   3.7
    5    -686.5990168220065470    -4.86e-02  3.03e-04  4.96e-02  4.04e-03  0.000   3.9
                              *** Initializing SOSCF ***
---------------------------------------S-O-S-C-F--------------------------------------
Iteration    Energy (Eh)           Delta-E    RMSDP     MaxDP     MaxGrad    Time(sec)
--------------------------------------------------------------------------------------
    6    -686.5998611439314345    -8.44e-04  1.52e-04  2.73e-02  1.49e-03     3.9
               *** Restarting incremental Fock matrix formation ***
    7    -686.6001393293878436    -2.78e-04  2.00e-04  2.87e-02  1.80e-03     6.9
    8    -686.6003295610511259    -1.90e-04  2.02e-04  3.30e-02  1.23e-03     5.7
    9    -686.6004752158277142    -1.46e-04  8.48e-05  1.10e-02  8.42e-04     5.7
   10    -686.6005083452831741    -3.31e-05  5.07e-05  8.63e-03  6.31e-04     5.5
   11    -686.6005350301244334    -2.67e-05  6.19e-05  8.28e-03  3.78e-04     5.3
   12    -686.6005480923691948    -1.31e-05  1.71e-05  2.29e-03  2.35e-04     5.5
   13    -686.6005514590652865    -3.37e-06  1.20e-05  2.50e-03  1.46e-04     5.1
   14    -686.6005524337502948    -9.75e-07  1.06e-05  1.69e-03  7.46e-05     5.0
   15    -686.6005529053574037    -4.72e-07  1.64e-05  3.62e-03  6.20e-05     4.9
   16    -686.6005530770643190    -1.72e-07  1.02e-05  1.71e-03  2.76e-05     4.8
   17    -686.6005531230842962    -4.60e-08  7.70e-06  1.48e-03  1.54e-05     4.8
   18    -686.6005531484755693    -2.54e-08  9.68e-06  1.42e-03  5.41e-06     4.4
   19    -686.6005531599208780    -1.14e-08  7.58e-06  1.36e-03  4.61e-06     4.3
   20    -686.6005531536571880     6.26e-09  1.39e-05  3.43e-03  1.73e-06     4.2
                 **** Energy Check signals convergence ****

               *****************************************************
               *                     SUCCESS                       *
               *           SCF CONVERGED AFTER  20 CYCLES          *
               *****************************************************

Recomputing exchange energy using gridx3       ... done (   10.722 sec)
Old exchange energy                            :    -29.166035645 Eh
New exchange energy                            :    -29.166035318 Eh
Exchange energy change after final integration :      0.000000327 Eh
Total energy after final integration           :   -686.600552826 Eh
             **** ENERGY FILE WAS UPDATED (TrpC-rotated-A.en.tmp) ****

----------------
TOTAL SCF ENERGY
----------------

Total Energy       :       -686.60055282625206 Eh          -18683.35089 eV

Components:
Nuclear Repulsion  :        955.93532848695111 Eh           26012.32273 eV
Electronic Energy  :      -1642.53588164060830 Eh          -44695.67362 eV
One Electron Energy:      -2812.26887403192995 Eh          -76525.72656 eV
Two Electron Energy:       1169.73299239132166 Eh           31830.05293 eV

Virial components:
Potential Energy   :      -1370.36069559421867 Eh          -37289.41028 eV
Kinetic Energy     :        683.76014276796673 Eh           18606.05940 eV
Virial Ratio       :          2.00415410299698

DFT components:
N(Alpha)           :       53.999971110429 electrons
N(Beta)            :       52.999965052293 electrons
N(Total)           :      106.999936162722 electrons
E(X)               :      -61.630630937342 Eh       
E(C)               :       -4.504320938582 Eh       
E(XC)              :      -66.134951875924 Eh       

---------------
SCF CONVERGENCE
---------------

  Last Energy change         ...   -6.2637e-09  Tolerance :   1.0000e-08
  Last MAX-Density change    ...    3.4277e-03  Tolerance :   1.0000e-07
  Last RMS-Density change    ...    1.3920e-05  Tolerance :   5.0000e-09
  Last DIIS Error            ...    1.4924e-03  Tolerance :   5.0000e-07
  Last Orbital Gradient      ...    1.7333e-06  Tolerance :   1.0000e-05
  Last Orbital Rotation      ...    9.7672e-06  Tolerance :   1.0000e-05


----------------------
UHF SPIN CONTAMINATION
----------------------

Warning: in a DFT calculation there is little theoretical justification to 
         calculate <S**2> as in Hartree-Fock theory. We will do it anyways
         but you should keep in mind that the values have only limited relevance

Expectation value of <S**2>     :     0.782115
Ideal value S*(S+1) for S=0.5   :     0.750000
Deviation                       :     0.032115

----------------
ORBITAL ENERGIES
----------------
                 SPIN UP ORBITALS
  NO   OCC          E(Eh)            E(eV) 
   0   1.0000     -19.382089      -527.4135 
   1   1.0000     -19.324553      -525.8478 
   2   1.0000     -14.659922      -398.9168 
   3   1.0000     -14.528827      -395.3495 
   4   1.0000     -10.526801      -286.4488 
   5   1.0000     -10.522829      -286.3407 
   6   1.0000     -10.491150      -285.4787 
   7   1.0000     -10.487384      -285.3762 
   8   1.0000     -10.460061      -284.6327 
   9   1.0000     -10.453655      -284.4584 
  10   1.0000     -10.450096      -284.3616 
  11   1.0000     -10.449179      -284.3366 
  12   1.0000     -10.447999      -284.3045 
  13   1.0000     -10.436436      -283.9899 
  14   1.0000     -10.429825      -283.8100 
  15   1.0000      -1.365490       -37.1569 
  16   1.0000      -1.322516       -35.9875 
  17   1.0000      -1.274653       -34.6851 
  18   1.0000      -1.173534       -31.9335 
  19   1.0000      -1.160798       -31.5869 
  20   1.0000      -1.119335       -30.4587 
  21   1.0000      -1.052883       -28.6504 
  22   1.0000      -1.044867       -28.4323 
  23   1.0000      -1.020790       -27.7771 
  24   1.0000      -0.950550       -25.8658 
  25   1.0000      -0.928086       -25.2545 
  26   1.0000      -0.898041       -24.4369 
  27   1.0000      -0.862915       -23.4811 
  28   1.0000      -0.843446       -22.9513 
  29   1.0000      -0.835621       -22.7384 
  30   1.0000      -0.784936       -21.3592 
  31   1.0000      -0.774960       -21.0877 
  32   1.0000      -0.763706       -20.7815 
  33   1.0000      -0.753456       -20.5026 
  34   1.0000      -0.733412       -19.9572 
  35   1.0000      -0.728918       -19.8349 
  36   1.0000      -0.722157       -19.6509 
  37   1.0000      -0.714726       -19.4487 
  38   1.0000      -0.699101       -19.0235 
  39   1.0000      -0.697958       -18.9924 
  40   1.0000      -0.671249       -18.2656 
  41   1.0000      -0.665588       -18.1116 
  42   1.0000      -0.640898       -17.4397 
  43   1.0000      -0.637576       -17.3493 
  44   1.0000      -0.635001       -17.2793 
  45   1.0000      -0.627120       -17.0648 
  46   1.0000      -0.613875       -16.7044 
  47   1.0000      -0.601710       -16.3734 
  48   1.0000      -0.562406       -15.3039 
  49   1.0000      -0.552474       -15.0336 
  50   1.0000      -0.515792       -14.0354 
  51   1.0000      -0.505014       -13.7421 
  52   1.0000      -0.493474       -13.4281 
  53   1.0000      -0.474162       -12.9026 
  54   0.0000      -0.128495        -3.4965 
  55   0.0000      -0.079208        -2.1554 
  56   0.0000      -0.075794        -2.0625 
  57   0.0000      -0.062745        -1.7074 
  58   0.0000      -0.058390        -1.5889 
  59   0.0000      -0.055246        -1.5033 
  60   0.0000      -0.049589        -1.3494 
  61   0.0000      -0.041459        -1.1282 
  62   0.0000      -0.039809        -1.0833 
  63   0.0000      -0.037269        -1.0141 
  64   0.0000      -0.028490        -0.7753 

                 SPIN DOWN ORBITALS
  NO   OCC          E(Eh)            E(eV) 
   0   1.0000     -19.382097      -527.4137 
   1   1.0000     -19.324442      -525.8448 
   2   1.0000     -14.658030      -398.8653 
   3   1.0000     -14.528446      -395.3391 
   4   1.0000     -10.526841      -286.4499 
   5   1.0000     -10.520325      -286.2726 
   6   1.0000     -10.489918      -285.4452 
   7   1.0000     -10.482819      -285.2520 
   8   1.0000     -10.459583      -284.6197 
   9   1.0000     -10.451081      -284.3884 
  10   1.0000     -10.449756      -284.3523 
  11   1.0000     -10.449327      -284.3406 
  12   1.0000     -10.447561      -284.2926 
  13   1.0000     -10.436683      -283.9966 
  14   1.0000     -10.431104      -283.8448 
  15   1.0000      -1.365433       -37.1553 
  16   1.0000      -1.315900       -35.8074 
  17   1.0000      -1.274489       -34.6806 
  18   1.0000      -1.171354       -31.8742 
  19   1.0000      -1.157897       -31.5080 
  20   1.0000      -1.109987       -30.2043 
  21   1.0000      -1.050396       -28.5827 
  22   1.0000      -1.041140       -28.3309 
  23   1.0000      -1.011760       -27.5314 
  24   1.0000      -0.948628       -25.8135 
  25   1.0000      -0.925180       -25.1754 
  26   1.0000      -0.894534       -24.3415 
  27   1.0000      -0.858302       -23.3556 
  28   1.0000      -0.841899       -22.9092 
  29   1.0000      -0.832671       -22.6581 
  30   1.0000      -0.782620       -21.2962 
  31   1.0000      -0.772543       -21.0220 
  32   1.0000      -0.760906       -20.7053 
  33   1.0000      -0.742491       -20.2042 
  34   1.0000      -0.727883       -19.8067 
  35   1.0000      -0.725843       -19.7512 
  36   1.0000      -0.715838       -19.4790 
  37   1.0000      -0.713308       -19.4101 
  38   1.0000      -0.697724       -18.9860 
  39   1.0000      -0.695729       -18.9317 
  40   1.0000      -0.669395       -18.2152 
  41   1.0000      -0.663141       -18.0450 
  42   1.0000      -0.637711       -17.3530 
  43   1.0000      -0.633375       -17.2350 
  44   1.0000      -0.625121       -17.0104 
  45   1.0000      -0.618457       -16.8291 
  46   1.0000      -0.612279       -16.6610 
  47   1.0000      -0.600340       -16.3361 
  48   1.0000      -0.553468       -15.0606 
  49   1.0000      -0.529156       -14.3991 
  50   1.0000      -0.511229       -13.9112 
  51   1.0000      -0.501465       -13.6455 
  52   1.0000      -0.491481       -13.3739 
  53   0.0000      -0.243323        -6.6211 
  54   0.0000      -0.099910        -2.7187 
  55   0.0000      -0.078839        -2.1453 
  56   0.0000      -0.062531        -1.7016 
  57   0.0000      -0.061799        -1.6816 
  58   0.0000      -0.056441        -1.5358 
  59   0.0000      -0.049832        -1.3560 
  60   0.0000      -0.043357        -1.1798 
  61   0.0000      -0.040723        -1.1081 
  62   0.0000      -0.039166        -1.0658 
  63   0.0000      -0.033011        -0.8983 
*Only the first 10 virtual orbitals were printed.

                    ********************************
                    * MULLIKEN POPULATION ANALYSIS *
                    ********************************

--------------------------------------------
MULLIKEN ATOMIC CHARGES AND SPIN POPULATIONS
--------------------------------------------
   0 N :   -0.606966    0.012429
   1 C :    0.074628    0.025567
   2 C :    0.317872    0.000406
   3 O :   -0.293714    0.005102
   4 C :   -0.345005   -0.009789
   5 C :   -0.193078    0.376949
   6 C :   -0.081291    0.227329
   7 C :    0.238819   -0.079563
   8 N :   -0.158767    0.094276
   9 C :    0.052842    0.063317
  10 C :   -0.275374    0.231310
  11 C :   -0.032475   -0.033158
  12 C :    0.076516   -0.110099
  13 C :    0.074712    0.208310
  14 O :   -0.372207   -0.000819
  15 H :    0.367108   -0.000030
  16 H :    0.289620   -0.000085
  17 H :    0.276123   -0.000009
  18 H :    0.169674   -0.000864
  19 H :    0.201883    0.008339
  20 H :    0.193922    0.001741
  21 H :    0.169241   -0.006855
  22 H :    0.280468   -0.001782
  23 H :    0.139559   -0.009793
  24 H :    0.128632    0.002416
  25 H :    0.148913    0.004470
  26 H :    0.158345   -0.009115
Sum of atomic charges         :    1.0000000
Sum of atomic spin populations:    1.0000000

-----------------------------------------------------
MULLIKEN REDUCED ORBITAL CHARGES AND SPIN POPULATIONS
-----------------------------------------------------
CHARGE
  0 N s       :     3.566219  s :     3.566219
      pz      :     1.130138  p :     3.992419
      px      :     1.418316
      py      :     1.443965
      dz2     :     0.014406  d :     0.045669
      dxz     :     0.007238
      dyz     :     0.011075
      dx2y2   :     0.011654
      dxy     :     0.001296
      f0      :     0.000751  f :     0.002659
      f+1     :     0.000543
      f-1     :     0.000450
      f+2     :     0.000244
      f-2     :     0.000125
      f+3     :     0.000229
      f-3     :     0.000317

  1 C s       :     3.093696  s :     3.093696
      pz      :     0.783799  p :     2.659981
      px      :     0.944071
      py      :     0.932110
      dz2     :     0.031486  d :     0.162815
      dxz     :     0.042124
      dyz     :     0.045094
      dx2y2   :     0.015912
      dxy     :     0.028199
      f0      :     0.001791  f :     0.008879
      f+1     :     0.002054
      f-1     :     0.002260
      f+2     :     0.000627
      f-2     :     0.000430
      f+3     :     0.000787
      f-3     :     0.000931

  2 C s       :     3.030027  s :     3.030027
      pz      :     0.746301  p :     2.347717
      px      :     0.836757
      py      :     0.764659
      dz2     :     0.073301  d :     0.281362
      dxz     :     0.076864
      dyz     :     0.046737
      dx2y2   :     0.031988
      dxy     :     0.052472
      f0      :     0.003308  f :     0.023021
      f+1     :     0.007041
      f-1     :     0.002573
      f+2     :     0.002698
      f-2     :     0.002181
      f+3     :     0.002263
      f-3     :     0.002956

  3 O s       :     3.873323  s :     3.873323
      pz      :     1.640254  p :     4.387381
      px      :     1.334751
      py      :     1.412376
      dz2     :     0.004834  d :     0.031079
      dxz     :     0.008027
      dyz     :     0.002268
      dx2y2   :     0.006327
      dxy     :     0.009623
      f0      :     0.000172  f :     0.001931
      f+1     :     0.000500
      f-1     :     0.000009
      f+2     :     0.000356
      f-2     :     0.000299
      f+3     :     0.000216
      f-3     :     0.000380

  4 C s       :     3.420725  s :     3.420725
      pz      :     0.965221  p :     2.821502
      px      :     0.884329
      py      :     0.971953
      dz2     :     0.027720  d :     0.098177
      dxz     :     0.011617
      dyz     :     0.012362
      dx2y2   :     0.017194
      dxy     :     0.029284
      f0      :     0.000788  f :     0.004601
      f+1     :     0.000659
      f-1     :     0.000516
      f+2     :     0.000484
      f-2     :     0.000454
      f+3     :     0.000743
      f-3     :     0.000957

  5 C s       :     3.194512  s :     3.194512
      pz      :     0.918639  p :     2.843046
      px      :     1.042067
      py      :     0.882341
      dz2     :     0.037318  d :     0.147000
      dxz     :     0.030478
      dyz     :     0.017606
      dx2y2   :     0.029990
      dxy     :     0.031608
      f0      :     0.001207  f :     0.008519
      f+1     :     0.001320
      f-1     :     0.000926
      f+2     :     0.001429
      f-2     :     0.001168
      f+3     :     0.001347
      f-3     :     0.001122

  6 C s       :     3.367802  s :     3.367802
      pz      :     0.890184  p :     2.581130
      px      :     0.845141
      py      :     0.845805
      dz2     :     0.028419  d :     0.121498
      dxz     :     0.029782
      dyz     :     0.015953
      dx2y2   :     0.017944
      dxy     :     0.029401
      f0      :     0.001247  f :     0.010862
      f+1     :     0.001838
      f-1     :     0.000737
      f+2     :     0.001890
      f-2     :     0.001679
      f+3     :     0.001336
      f-3     :     0.002135

  7 C s       :     2.842695  s :     2.842695
      pz      :     0.853629  p :     2.779882
      px      :     1.037296
      py      :     0.888957
      dz2     :     0.029093  d :     0.129164
      dxz     :     0.033408
      dyz     :     0.015172
      dx2y2   :     0.024502
      dxy     :     0.026988
      f0      :     0.001306  f :     0.009439
      f+1     :     0.001162
      f-1     :     0.001209
      f+2     :     0.002080
      f-2     :     0.001320
      f+3     :     0.001193
      f-3     :     0.001170

  8 N s       :     3.414404  s :     3.414404
      pz      :     1.240345  p :     3.671357
      px      :     1.069697
      py      :     1.361314
      dz2     :     0.011685  d :     0.067606
      dxz     :     0.018265
      dyz     :     0.009838
      dx2y2   :     0.010732
      dxy     :     0.017085
      f0      :     0.000320  f :     0.005400
      f+1     :     0.000967
      f-1     :     0.000882
      f+2     :     0.000984
      f-2     :     0.000927
      f+3     :     0.000538
      f-3     :     0.000781

  9 C s       :     3.068112  s :     3.068112
      pz      :     0.933990  p :     2.715174
      px      :     0.872802
      py      :     0.908382
      dz2     :     0.029347  d :     0.151391
      dxz     :     0.042776
      dyz     :     0.016641
      dx2y2   :     0.024041
      dxy     :     0.038586
      f0      :     0.001446  f :     0.012481
      f+1     :     0.001819
      f-1     :     0.001060
      f+2     :     0.002608
      f-2     :     0.001723
      f+3     :     0.001655
      f-3     :     0.002170

 10 C s       :     3.463672  s :     3.463672
      pz      :     0.905088  p :     2.710232
      px      :     0.912482
      py      :     0.892662
      dz2     :     0.015175  d :     0.094831
      dxz     :     0.031222
      dyz     :     0.010018
      dx2y2   :     0.016161
      dxy     :     0.022256
      f0      :     0.000697  f :     0.006639
      f+1     :     0.000864
      f-1     :     0.000856
      f+2     :     0.001439
      f-2     :     0.000849
      f+3     :     0.000763
      f-3     :     0.001171

 11 C s       :     3.249216  s :     3.249216
      pz      :     0.923614  p :     2.687720
      px      :     0.848821
      py      :     0.915285
      dz2     :     0.016632  d :     0.088753
      dxz     :     0.024748
      dyz     :     0.010900
      dx2y2   :     0.017008
      dxy     :     0.019465
      f0      :     0.000730  f :     0.006786
      f+1     :     0.000818
      f-1     :     0.000940
      f+2     :     0.001485
      f-2     :     0.000853
      f+3     :     0.000772
      f-3     :     0.001187

 12 C s       :     3.088662  s :     3.088662
      pz      :     0.924689  p :     2.741729
      px      :     0.873770
      py      :     0.943269
      dz2     :     0.016661  d :     0.086218
      dxz     :     0.023265
      dyz     :     0.012435
      dx2y2   :     0.013893
      dxy     :     0.019964
      f0      :     0.000919  f :     0.006876
      f+1     :     0.000772
      f-1     :     0.000817
      f+2     :     0.001435
      f-2     :     0.001019
      f+3     :     0.000740
      f-3     :     0.001173

 13 C s       :     3.138919  s :     3.138919
      pz      :     0.865037  p :     2.688564
      px      :     0.977100
      py      :     0.846427
      dz2     :     0.024959  d :     0.090980
      dxz     :     0.020216
      dyz     :     0.012064
      dx2y2   :     0.020590
      dxy     :     0.013151
      f0      :     0.001051  f :     0.006825
      f+1     :     0.001047
      f-1     :     0.000933
      f+2     :     0.001481
      f-2     :     0.000971
      f+3     :     0.000824
      f-3     :     0.000518

 14 O s       :     3.770207  s :     3.770207
      pz      :     1.332030  p :     4.569775
      px      :     1.529460
      py      :     1.708286
      dz2     :     0.008638  d :     0.030545
      dxz     :     0.008895
      dyz     :     0.004746
      dx2y2   :     0.005027
      dxy     :     0.003239
      f0      :     0.000450  f :     0.001679
      f+1     :     0.000161
      f-1     :     0.000358
      f+2     :     0.000270
      f-2     :     0.000162
      f+3     :     0.000123
      f-3     :     0.000155

 15 H s       :     0.579338  s :     0.579338
      pz      :     0.014242  p :     0.053554
      px      :     0.017130
      py      :     0.022182

 16 H s       :     0.668261  s :     0.668261
      pz      :     0.010366  p :     0.042120
      px      :     0.018628
      py      :     0.013126

 17 H s       :     0.679350  s :     0.679350
      pz      :     0.012478  p :     0.044527
      px      :     0.014054
      py      :     0.017994

 18 H s       :     0.802641  s :     0.802641
      pz      :     0.006957  p :     0.027685
      px      :     0.010530
      py      :     0.010197

 19 H s       :     0.770869  s :     0.770869
      pz      :     0.013634  p :     0.027248
      px      :     0.006530
      py      :     0.007083

 20 H s       :     0.778878  s :     0.778878
      pz      :     0.006822  p :     0.027200
      px      :     0.010990
      py      :     0.009388

 21 H s       :     0.802406  s :     0.802406
      pz      :     0.008090  p :     0.028354
      px      :     0.012338
      py      :     0.007925

 22 H s       :     0.678354  s :     0.678354
      pz      :     0.016895  p :     0.041178
      px      :     0.007468
      py      :     0.016816

 23 H s       :     0.832382  s :     0.832382
      pz      :     0.011605  p :     0.028059
      px      :     0.007494
      py      :     0.008960

 24 H s       :     0.843029  s :     0.843029
      pz      :     0.011086  p :     0.028339
      px      :     0.008285
      py      :     0.008968

 25 H s       :     0.823954  s :     0.823954
      pz      :     0.009847  p :     0.027133
      px      :     0.007286
      py      :     0.010000

 26 H s       :     0.815288  s :     0.815288
      pz      :     0.006284  p :     0.026367
      px      :     0.012722
      py      :     0.007362


SPIN
  0 N s       :     0.000284  s :     0.000284
      pz      :     0.002755  p :     0.011637
      px      :     0.006050
      py      :     0.002833
      dz2     :     0.000102  d :     0.000495
      dxz     :     0.000014
      dyz     :     0.000223
      dx2y2   :    -0.000017
      dxy     :     0.000174
      f0      :    -0.000003  f :     0.000013
      f+1     :     0.000004
      f-1     :     0.000016
      f+2     :    -0.000001
      f-2     :    -0.000002
      f+3     :     0.000001
      f-3     :    -0.000001

  1 C s       :     0.001890  s :     0.001890
      pz      :     0.003660  p :     0.023637
      px      :     0.001888
      py      :     0.018089
      dz2     :    -0.000040  d :     0.000020
      dxz     :    -0.000028
      dyz     :     0.000116
      dx2y2   :    -0.000004
      dxy     :    -0.000023
      f0      :    -0.000000  f :     0.000020
      f+1     :     0.000007
      f-1     :     0.000012
      f+2     :     0.000001
      f-2     :    -0.000001
      f+3     :    -0.000001
      f-3     :     0.000002

  2 C s       :     0.001745  s :     0.001745
      pz      :    -0.000604  p :    -0.001824
      px      :    -0.000106
      py      :    -0.001114
      dz2     :    -0.000064  d :     0.000443
      dxz     :     0.000267
      dyz     :    -0.000001
      dx2y2   :    -0.000009
      dxy     :     0.000250
      f0      :     0.000002  f :     0.000041
      f+1     :     0.000024
      f-1     :     0.000001
      f+2     :     0.000003
      f-2     :     0.000004
      f+3     :     0.000002
      f-3     :     0.000005

  3 O s       :     0.000625  s :     0.000625
      pz      :     0.001971  p :     0.004509
      px      :     0.001035
      py      :     0.001504
      dz2     :    -0.000004  d :    -0.000029
      dxz     :    -0.000008
      dyz     :    -0.000001
      dx2y2   :    -0.000006
      dxy     :    -0.000010
      f0      :    -0.000000  f :    -0.000003
      f+1     :    -0.000001
      f-1     :     0.000000
      f+2     :    -0.000000
      f-2     :    -0.000001
      f+3     :    -0.000000
      f-3     :    -0.000001

  4 C s       :     0.000263  s :     0.000263
      pz      :    -0.006248  p :    -0.018881
      px      :    -0.001621
      py      :    -0.011012
      dz2     :     0.002400  d :     0.008422
      dxz     :     0.001292
      dyz     :    -0.000060
      dx2y2   :     0.001249
      dxy     :     0.003541
      f0      :     0.000014  f :     0.000406
      f+1     :     0.000147
      f-1     :     0.000007
      f+2     :     0.000103
      f-2     :     0.000039
      f+3     :     0.000042
      f-3     :     0.000054

  5 C s       :     0.036562  s :     0.036562
      pz      :     0.098983  p :     0.334379
      px      :     0.008563
      py      :     0.226834
      dz2     :     0.004979  d :     0.006362
      dxz     :     0.000203
      dyz     :    -0.000098
      dx2y2   :     0.002827
      dxy     :    -0.001549
      f0      :     0.000249  f :    -0.000354
      f+1     :    -0.000004
      f-1     :    -0.000222
      f+2     :    -0.000075
      f-2     :    -0.000097
      f+3     :    -0.000116
      f-3     :    -0.000089

  6 C s       :     0.009496  s :     0.009496
      pz      :     0.047603  p :     0.207801
      px      :     0.008287
      py      :     0.151911
      dz2     :     0.006816  d :     0.009736
      dxz     :    -0.000251
      dyz     :     0.001934
      dx2y2   :     0.001052
      dxy     :     0.000185
      f0      :     0.000401  f :     0.000296
      f+1     :     0.000100
      f-1     :    -0.000158
      f+2     :     0.000027
      f-2     :    -0.000077
      f+3     :    -0.000050
      f-3     :     0.000053

  7 C s       :    -0.023460  s :    -0.023460
      pz      :    -0.029060  p :    -0.070373
      px      :     0.006260
      py      :    -0.047573
      dz2     :     0.001450  d :     0.013508
      dxz     :     0.003753
      dyz     :     0.000366
      dx2y2   :     0.002256
      dxy     :     0.005682
      f0      :     0.000296  f :     0.000762
      f+1     :     0.000062
      f-1     :     0.000040
      f+2     :     0.000088
      f-2     :     0.000024
      f+3     :     0.000122
      f-3     :     0.000129

  8 N s       :    -0.002328  s :    -0.002328
      pz      :     0.026321  p :     0.092208
      px      :    -0.000479
      py      :     0.066366
      dz2     :     0.000050  d :     0.004336
      dxz     :     0.001255
      dyz     :    -0.000131
      dx2y2   :     0.000363
      dxy     :     0.002799
      f0      :     0.000008  f :     0.000061
      f+1     :     0.000093
      f-1     :    -0.000040
      f+2     :    -0.000014
      f-2     :    -0.000022
      f+3     :     0.000033
      f-3     :     0.000003

  9 C s       :     0.000970  s :     0.000970
      pz      :     0.026664  p :     0.065821
      px      :    -0.021535
      py      :     0.060692
      dz2     :    -0.000420  d :    -0.003401
      dxz     :    -0.000076
      dyz     :    -0.000783
      dx2y2   :     0.000442
      dxy     :    -0.002564
      f0      :     0.000061  f :    -0.000074
      f+1     :     0.000047
      f-1     :    -0.000043
      f+2     :     0.000008
      f-2     :    -0.000068
      f+3     :    -0.000019
      f-3     :    -0.000060

 10 C s       :     0.009340  s :     0.009340
      pz      :     0.061798  p :     0.226489
      px      :     0.018479
      py      :     0.146212
      dz2     :    -0.000436  d :    -0.004035
      dxz     :    -0.000771
      dyz     :    -0.000583
      dx2y2   :    -0.000800
      dxy     :    -0.001444
      f0      :    -0.000014  f :    -0.000485
      f+1     :    -0.000035
      f-1     :    -0.000106
      f+2     :    -0.000081
      f-2     :    -0.000064
      f+3     :    -0.000077
      f-3     :    -0.000108

 11 C s       :    -0.000058  s :    -0.000058
      pz      :    -0.012136  p :    -0.040533
      px      :    -0.014827
      py      :    -0.013570
      dz2     :     0.001282  d :     0.007113
      dxz     :     0.001947
      dyz     :     0.000091
      dx2y2   :     0.001649
      dxy     :     0.002143
      f0      :     0.000110  f :     0.000321
      f+1     :     0.000069
      f-1     :     0.000016
      f+2     :     0.000064
      f-2     :    -0.000013
      f+3     :     0.000036
      f-3     :     0.000039

 12 C s       :    -0.013855  s :    -0.013855
      pz      :    -0.035624  p :    -0.106204
      px      :    -0.006915
      py      :    -0.063666
      dz2     :     0.001701  d :     0.009389
      dxz     :     0.001518
      dyz     :     0.001048
      dx2y2   :     0.000334
      dxy     :     0.004789
      f0      :     0.000146  f :     0.000571
      f+1     :     0.000038
      f-1     :     0.000043
      f+2     :     0.000056
      f-2     :     0.000052
      f+3     :     0.000096
      f-3     :     0.000140

 13 C s       :     0.011584  s :     0.011584
      pz      :     0.052180  p :     0.199422
      px      :     0.010688
      py      :     0.136553
      dz2     :    -0.000622  d :    -0.002304
      dxz     :    -0.000155
      dyz     :    -0.000627
      dx2y2   :    -0.000164
      dxy     :    -0.000736
      f0      :    -0.000050  f :    -0.000392
      f+1     :    -0.000024
      f-1     :    -0.000097
      f+2     :    -0.000056
      f-2     :    -0.000080
      f+3     :    -0.000052
      f-3     :    -0.000033

 14 O s       :    -0.000628  s :    -0.000628
      pz      :     0.000013  p :    -0.000180
      px      :     0.000019
      py      :    -0.000212
      dz2     :    -0.000003  d :    -0.000011
      dxz     :    -0.000005
      dyz     :    -0.000003
      dx2y2   :    -0.000000
      dxy     :    -0.000000
      f0      :    -0.000000  f :    -0.000000
      f+1     :    -0.000000
      f-1     :     0.000000
      f+2     :    -0.000000
      f-2     :    -0.000000
      f+3     :     0.000000
      f-3     :     0.000000

 15 H s       :    -0.000027  s :    -0.000027
      pz      :    -0.000002  p :    -0.000003
      px      :     0.000001
      py      :    -0.000001

 16 H s       :    -0.000179  s :    -0.000179
      pz      :    -0.000055  p :     0.000094
      px      :     0.000039
      py      :     0.000110

 17 H s       :    -0.000198  s :    -0.000198
      pz      :     0.000063  p :     0.000189
      px      :     0.000140
      py      :    -0.000014

 18 H s       :    -0.001126  s :    -0.001126
      pz      :     0.000019  p :     0.000262
      px      :     0.000042
      py      :     0.000200

 19 H s       :     0.008608  s :     0.008608
      pz      :    -0.000115  p :    -0.000269
      px      :    -0.000079
      py      :    -0.000075

 20 H s       :     0.001872  s :     0.001872
      pz      :     0.000012  p :    -0.000131
      px      :    -0.000088
      py      :    -0.000056

 21 H s       :    -0.008992  s :    -0.008992
      pz      :     0.000552  p :     0.002136
      px      :    -0.000009
      py      :     0.001593

 22 H s       :    -0.003313  s :    -0.003313
      pz      :     0.000407  p :     0.001531
      px      :    -0.000049
      py      :     0.001173

 23 H s       :    -0.011768  s :    -0.011768
      pz      :     0.000490  p :     0.001975
      px      :     0.000048
      py      :     0.001437

 24 H s       :     0.002764  s :     0.002764
      pz      :    -0.000072  p :    -0.000347
      px      :    -0.000027
      py      :    -0.000248

 25 H s       :     0.005451  s :     0.005451
      pz      :    -0.000279  p :    -0.000981
      px      :    -0.000078
      py      :    -0.000623

 26 H s       :    -0.010954  s :    -0.010954
      pz      :     0.000586  p :     0.001839
      px      :    -0.000049
      py      :     0.001301



                     *******************************
                     * LOEWDIN POPULATION ANALYSIS *
                     *******************************

-------------------------------------------
LOEWDIN ATOMIC CHARGES AND SPIN POPULATIONS
-------------------------------------------
   0 N :   -0.011656    0.014668
   1 C :   -0.222552    0.018691
   2 C :   -0.418000    0.000068
   3 O :    0.088809    0.004058
   4 C :   -0.141126    0.019229
   5 C :   -0.023793    0.290710
   6 C :    0.017463    0.212420
   7 C :   -0.110111   -0.016314
   8 N :    0.244318    0.099819
   9 C :   -0.107454    0.067582
  10 C :   -0.008508    0.153855
  11 C :   -0.039903    0.000761
  12 C :   -0.073553   -0.042119
  13 C :   -0.019410    0.150606
  14 O :    0.142801   -0.000165
  15 H :    0.119051   -0.000022
  16 H :    0.110405    0.000703
  17 H :    0.101077    0.001137
  18 H :    0.157119    0.000373
  19 H :    0.151962    0.004037
  20 H :    0.155201    0.001605
  21 H :    0.156974    0.005739
  22 H :    0.159363    0.004849
  23 H :    0.146712    0.005884
  24 H :    0.144790   -0.000968
  25 H :    0.138824   -0.002898
  26 H :    0.141196    0.005689

----------------------------------------------------
LOEWDIN REDUCED ORBITAL CHARGES AND SPIN POPULATIONS
----------------------------------------------------
CHARGE
  0 N s       :     2.954832  s :     2.954832
      pz      :     1.201086  p :     3.917285
      px      :     1.348509
      py      :     1.367691
      dz2     :     0.040560  d :     0.128136
      dxz     :     0.024888
      dyz     :     0.033981
      dx2y2   :     0.024622
      dxy     :     0.004085
      f0      :     0.002811  f :     0.011402
      f+1     :     0.002987
      f-1     :     0.002483
      f+2     :     0.001207
      f-2     :     0.000325
      f+3     :     0.000727
      f-3     :     0.000862

  1 C s       :     2.660048  s :     2.660048
      pz      :     0.938712  p :     2.979533
      px      :     1.030574
      py      :     1.010247
      dz2     :     0.133741  d :     0.530790
      dxz     :     0.119619
      dyz     :     0.118828
      dx2y2   :     0.061273
      dxy     :     0.097328
      f0      :     0.009351  f :     0.052181
      f+1     :     0.010874
      f-1     :     0.012737
      f+2     :     0.006000
      f-2     :     0.004184
      f+3     :     0.004205
      f-3     :     0.004830

  2 C s       :     2.691926  s :     2.691926
      pz      :     0.904474  p :     2.701997
      px      :     1.060871
      py      :     0.736653
      dz2     :     0.235963  d :     0.899272
      dxz     :     0.267941
      dyz     :     0.127293
      dx2y2   :     0.131347
      dxy     :     0.136727
      f0      :     0.018647  f :     0.124805
      f+1     :     0.041179
      f-1     :     0.013842
      f+2     :     0.014361
      f-2     :     0.011961
      f+3     :     0.011971
      f-3     :     0.012844

  3 O s       :     3.356979  s :     3.356979
      pz      :     1.596662  p :     4.486322
      px      :     1.536118
      py      :     1.353542
      dz2     :     0.010126  d :     0.062408
      dxz     :     0.020257
      dyz     :     0.002940
      dx2y2   :     0.017715
      dxy     :     0.011368
      f0      :     0.000541  f :     0.005482
      f+1     :     0.001482
      f-1     :     0.000013
      f+2     :     0.001313
      f-2     :     0.000546
      f+3     :     0.000876
      f-3     :     0.000711

  4 C s       :     2.666894  s :     2.666894
      pz      :     1.061095  p :     3.095675
      px      :     1.021648
      py      :     1.012932
      dz2     :     0.095845  d :     0.349350
      dxz     :     0.046328
      dyz     :     0.041943
      dx2y2   :     0.061898
      dxy     :     0.103336
      f0      :     0.003189  f :     0.029207
      f+1     :     0.003672
      f-1     :     0.003259
      f+2     :     0.005303
      f-2     :     0.004268
      f+3     :     0.004319
      f-3     :     0.005197

  5 C s       :     2.667108  s :     2.667108
      pz      :     0.946831  p :     2.845373
      px      :     1.050208
      py      :     0.848335
      dz2     :     0.099094  d :     0.467774
      dxz     :     0.111565
      dyz     :     0.064342
      dx2y2   :     0.098041
      dxy     :     0.094732
      f0      :     0.006310  f :     0.043538
      f+1     :     0.008123
      f-1     :     0.004754
      f+2     :     0.005307
      f-2     :     0.006174
      f+3     :     0.007562
      f-3     :     0.005308

  6 C s       :     2.700263  s :     2.700263
      pz      :     0.952820  p :     2.792712
      px      :     0.992103
      py      :     0.847789
      dz2     :     0.091865  d :     0.436213
      dxz     :     0.121186
      dyz     :     0.055358
      dx2y2   :     0.073590
      dxy     :     0.094214
      f0      :     0.005822  f :     0.053349
      f+1     :     0.012080
      f-1     :     0.003468
      f+2     :     0.007140
      f-2     :     0.007910
      f+3     :     0.007186
      f-3     :     0.009743

  7 C s       :     2.629527  s :     2.629527
      pz      :     0.996435  p :     2.964880
      px      :     1.023116
      py      :     0.945329
      dz2     :     0.099496  d :     0.469712
      dxz     :     0.123957
      dyz     :     0.068617
      dx2y2   :     0.085835
      dxy     :     0.091807
      f0      :     0.006777  f :     0.045992
      f+1     :     0.006897
      f-1     :     0.005471
      f+2     :     0.008451
      f-2     :     0.006652
      f+3     :     0.005764
      f-3     :     0.005980

  8 N s       :     2.846600  s :     2.846600
      pz      :     1.209342  p :     3.669096
      px      :     1.213836
      py      :     1.245919
      dz2     :     0.038777  d :     0.219469
      dxz     :     0.061190
      dyz     :     0.026757
      dx2y2   :     0.042787
      dxy     :     0.049958
      f0      :     0.001213  f :     0.020517
      f+1     :     0.005280
      f-1     :     0.001945
      f+2     :     0.003208
      f-2     :     0.003453
      f+3     :     0.002644
      f-3     :     0.002774

  9 C s       :     2.639820  s :     2.639820
      pz      :     0.929458  p :     2.856822
      px      :     1.045212
      py      :     0.882152
      dz2     :     0.101429  d :     0.551243
      dxz     :     0.159893
      dyz     :     0.065196
      dx2y2   :     0.102125
      dxy     :     0.122600
      f0      :     0.007841  f :     0.059569
      f+1     :     0.010051
      f-1     :     0.005256
      f+2     :     0.011553
      f-2     :     0.007842
      f+3     :     0.007886
      f-3     :     0.009139

 10 C s       :     2.691060  s :     2.691060
      pz      :     0.974919  p :     2.928821
      px      :     1.078955
      py      :     0.874947
      dz2     :     0.057476  d :     0.356747
      dxz     :     0.114091
      dyz     :     0.038597
      dx2y2   :     0.065552
      dxy     :     0.081031
      f0      :     0.004509  f :     0.031880
      f+1     :     0.004363
      f-1     :     0.003741
      f+2     :     0.006382
      f-2     :     0.003349
      f+3     :     0.003639
      f-3     :     0.005897

 11 C s       :     2.687987  s :     2.687987
      pz      :     1.002200  p :     2.974053
      px      :     1.049637
      py      :     0.922217
      dz2     :     0.058969  d :     0.345570
      dxz     :     0.102855
      dyz     :     0.039495
      dx2y2   :     0.068166
      dxy     :     0.076085
      f0      :     0.004481  f :     0.032293
      f+1     :     0.004165
      f-1     :     0.003898
      f+2     :     0.006198
      f-2     :     0.003407
      f+3     :     0.004019
      f-3     :     0.006125

 12 C s       :     2.698018  s :     2.698018
      pz      :     1.004200  p :     2.995436
[...]

 -----------------------------------------------------------
 Nucleus  18H : A  : Isotope=    1 I=  0.5 P=533.5514 MHz/au**3 
                Q  : Isotope=    2 I=  1.0 Q=  0.0029 barn      
                HFC: iso  =YES dip=YES orb=YES gauge=YES    
                EFG: fgrad= NO rho= NO                      
 -----------------------------------------------------------

 Total HFC matrix (all values in MHz): 
 ----------------------------------------------------------------
                -2.6795              -0.5514               0.4466
                -0.5524               0.1105               1.3300
                 0.4461               1.3313              -4.4723

 A(FC)          -2.3471              -2.3471              -2.3471
 A(SD)           2.8707              -0.2413              -2.6295
 A(ORB+DIA)      0.0006              -0.0007               0.0002    A(PC) =    0.0000
 A(ORB)          0.0003              -0.0010               0.0002    A(PC) =   -0.0002
 A(DIA)          0.0003               0.0003               0.0001    A(PC) =    0.0002
             ----------           ----------           ----------
 A(Tot)          0.5242              -2.5891              -4.9764    A(iso)=   -2.3471
 Orientation: 
  X           0.1314588            0.9603470           -0.2458705
  Y          -0.9608154            0.0623766           -0.2700794
  Z          -0.2440333            0.2717405            0.9309161

Notes:  (1) The A matrix conforms to the "SAI" spin Hamiltonian convention.
        (2) Tensor is right-handed.

 -----------------------------------------------------------
 Nucleus  19H : A  : Isotope=    1 I=  0.5 P=533.5514 MHz/au**3 
                Q  : Isotope=    2 I=  1.0 Q=  0.0029 barn      
                HFC: iso  =YES dip=YES orb=YES gauge=YES    
                EFG: fgrad= NO rho= NO                      
 -----------------------------------------------------------

 Total HFC matrix (all values in MHz): 
 ----------------------------------------------------------------
                16.9801              -0.5871              -2.3487
                -0.5891              15.7616               2.1778
                -2.3516               2.1755              20.0216

 A(FC)          17.5864              17.5864              17.5864
 A(SD)          -2.8438              -1.6347               4.4785
 A(ORB+DIA)     -0.0002               0.0013               0.0031    A(PC) =    0.0014
 A(ORB)         -0.0002               0.0010               0.0025    A(PC) =    0.0011
 A(DIA)          0.0000               0.0002               0.0005    A(PC) =    0.0003
             ----------           ----------           ----------
 A(Tot)         14.7424              15.9530              22.0680    A(iso)=   17.5878
 Orientation: 
  X          -0.2691984            0.8633575            0.4267857
  Y           0.8422243            0.4259694           -0.3304667
  Z          -0.4671086            0.2704883           -0.8418110

Notes:  (1) The A matrix conforms to the "SAI" spin Hamiltonian convention.
        (2) Tensor is right-handed.

 -----------------------------------------------------------
 Nucleus  20H : A  : Isotope=    1 I=  0.5 P=533.5514 MHz/au**3 
                Q  : Isotope=    2 I=  1.0 Q=  0.0029 barn      
                HFC: iso  =YES dip=YES orb=YES gauge=YES    
                EFG: fgrad= NO rho= NO                      
 -----------------------------------------------------------

 Total HFC matrix (all values in MHz): 
 ----------------------------------------------------------------
                13.3404              -0.2007              -2.8644
                -0.2014               6.1217               0.1973
                -2.8631               0.1974               7.8079

 A(FC)           9.0900               9.0900               9.0900
 A(SD)          -2.9974              -2.4757               5.4731
 A(ORB+DIA)     -0.0003              -0.0006               0.0007    A(PC) =   -0.0001
 A(ORB)         -0.0002              -0.0006               0.0001    A(PC) =   -0.0002
 A(DIA)         -0.0001               0.0000               0.0006    A(PC) =    0.0002
             ----------           ----------           ----------
 A(Tot)          6.0924               6.6137              14.5639    A(iso)=    9.0900
 Orientation: 
  X          -0.0512306           -0.3887707           -0.9199091
  Y           0.9788213           -0.2023546            0.0310074
  Z          -0.1982026           -0.8988381            0.3909038

Notes:  (1) The A matrix conforms to the "SAI" spin Hamiltonian convention.
        (2) Tensor is right-handed.

 -----------------------------------------------------------
 Nucleus  21H : A  : Isotope=    1 I=  0.5 P=533.5514 MHz/au**3 
                Q  : Isotope=    2 I=  1.0 Q=  0.0029 barn      
                HFC: iso  =YES dip=YES orb=YES gauge=YES    
                EFG: fgrad= NO rho= NO                      
 -----------------------------------------------------------

 Total HFC matrix (all values in MHz): 
 ----------------------------------------------------------------
               -14.8899               7.3664               9.7139
                 7.3743             -15.3123               3.0105
                 9.7242               3.0130             -17.4295

 A(FC)         -15.8810             -15.8810             -15.8810
 A(SD)          13.8617              -2.9987             -10.8630
 A(ORB+DIA)      0.0107              -0.0014               0.0018    A(PC) =    0.0037
 A(ORB)          0.0089              -0.0002               0.0019    A(PC) =    0.0035
 A(DIA)          0.0019              -0.0012              -0.0001    A(PC) =    0.0002
             ----------           ----------           ----------
 A(Tot)         -2.0086             -18.8810             -26.7422    A(iso)=  -15.8773
 Orientation: 
  X           0.6854819            0.1713083            0.7076496
  Y           0.4996569           -0.8176212           -0.2860744
  Z           0.5295824            0.5496808           -0.6460600

Notes:  (1) The A matrix conforms to the "SAI" spin Hamiltonian convention.
        (2) Tensor is right-handed.

 -----------------------------------------------------------
 Nucleus  22H : A  : Isotope=    1 I=  0.5 P=533.5514 MHz/au**3 
                Q  : Isotope=    2 I=  1.0 Q=  0.0029 barn      
                HFC: iso  =YES dip=YES orb=YES gauge=YES    
                EFG: fgrad= NO rho= NO                      
 -----------------------------------------------------------

 Total HFC matrix (all values in MHz): 
 ----------------------------------------------------------------
               -16.6349              -2.9225              -3.1838
                -2.9266              -9.4792               5.6968
                -3.1903               5.6958              -2.5619

 A(FC)          -9.5644              -9.5644              -9.5644
 A(SD)          11.1724              -2.9417              -8.2308
 A(ORB+DIA)      0.0110              -0.0011               0.0075    A(PC) =    0.0058
 A(ORB)          0.0092              -0.0001               0.0076    A(PC) =    0.0055
 A(DIA)          0.0018              -0.0010              -0.0001    A(PC) =    0.0002
             ----------           ----------           ----------
 A(Tot)          1.6190             -12.5072             -17.7877    A(iso)=   -9.5586
 Orientation: 
  X          -0.2254123           -0.1768837           -0.9580717
  Y           0.4912688            0.8285717           -0.2685590
  Z           0.8413348           -0.5312073           -0.0998729

Notes:  (1) The A matrix conforms to the "SAI" spin Hamiltonian convention.
        (2) Tensor is right-handed.

 -----------------------------------------------------------
 Nucleus  23H : A  : Isotope=    1 I=  0.5 P=533.5514 MHz/au**3 
                Q  : Isotope=    2 I=  1.0 Q=  0.0029 barn      
                HFC: iso  =YES dip=YES orb=YES gauge=YES    
                EFG: fgrad= NO rho= NO                      
 -----------------------------------------------------------

 Total HFC matrix (all values in MHz): 
 ----------------------------------------------------------------
               -18.9428              -3.8814              -5.2328
                -3.8790             -14.7210               2.7483
                -5.2297               2.7488              -9.7407

 A(FC)         -14.4701             -14.4701             -14.4701
 A(SD)           8.9916              -1.2393              -7.7523
 A(ORB+DIA)     -0.0001              -0.0003               0.0062    A(PC) =    0.0019
 A(ORB)         -0.0015               0.0002               0.0060    A(PC) =    0.0016
 A(DIA)          0.0014              -0.0005               0.0002    A(PC) =    0.0004
             ----------           ----------           ----------
 A(Tot)         -5.4785             -15.7097             -22.2162    A(iso)=  -14.4682
 Orientation: 
  X          -0.4312572           -0.1575734           -0.8883624
  Y           0.4187054            0.8372261           -0.3517644
  Z           0.7991889           -0.5236631           -0.2950830

Notes:  (1) The A matrix conforms to the "SAI" spin Hamiltonian convention.
        (2) Tensor is right-handed.

 -----------------------------------------------------------
 Nucleus  24H : A  : Isotope=    1 I=  0.5 P=533.5514 MHz/au**3 
                Q  : Isotope=    2 I=  1.0 Q=  0.0029 barn      
                HFC: iso  =YES dip=YES orb=YES gauge=YES    
                EFG: fgrad= NO rho= NO                      
 -----------------------------------------------------------

 Total HFC matrix (all values in MHz): 
 ----------------------------------------------------------------
                 2.3489               0.8048               0.5178
                 0.8033               1.1143               1.7420
                 0.5159               1.7418               2.4913

 A(FC)           1.9860               1.9860               1.9860
 A(SD)          -2.1177              -0.0165               2.1343
 A(ORB+DIA)     -0.0000              -0.0041               0.0005    A(PC) =   -0.0012
 A(ORB)         -0.0001              -0.0045               0.0003    A(PC) =   -0.0014
 A(DIA)          0.0001               0.0004               0.0002    A(PC) =    0.0002
             ----------           ----------           ----------
 A(Tot)         -0.1317               1.9654               4.1208    A(iso)=    1.9848
 Orientation: 
  X          -0.1621416            0.8774888           -0.4513575
  Y           0.8364879           -0.1204146           -0.5345917
  Z          -0.5234482           -0.4642346           -0.7144845

Notes:  (1) The A matrix conforms to the "SAI" spin Hamiltonian convention.
        (2) Tensor is right-handed.

 -----------------------------------------------------------
 Nucleus  25H : A  : Isotope=    1 I=  0.5 P=533.5514 MHz/au**3 
                Q  : Isotope=    2 I=  1.0 Q=  0.0029 barn      
                HFC: iso  =YES dip=YES orb=YES gauge=YES    
                EFG: fgrad= NO rho= NO                      
 -----------------------------------------------------------

 Total HFC matrix (all values in MHz): 
 ----------------------------------------------------------------
                 8.5793              -0.2380              -1.7886
                -0.2382               4.0365               0.4135
                -1.7897               0.4134               4.9486

 A(FC)           5.8549               5.8549               5.8549
 A(SD)          -2.0519              -1.4352               3.4870
 A(ORB+DIA)      0.0003               0.0017              -0.0022    A(PC) =   -0.0001
 A(ORB)         -0.0001               0.0017              -0.0025    A(PC) =   -0.0003
 A(DIA)          0.0004               0.0000               0.0003    A(PC) =    0.0002
             ----------           ----------           ----------
 A(Tot)          3.8033               4.4214               9.3397    A(iso)=    5.8548
 Orientation: 
  X          -0.1674511           -0.3506847           -0.9214013
  Y           0.8144796           -0.5758149            0.0711351
  Z          -0.5555026           -0.7385509            0.3820464

Notes:  (1) The A matrix conforms to the "SAI" spin Hamiltonian convention.
        (2) Tensor is right-handed.

 -----------------------------------------------------------
 Nucleus  26H : A  : Isotope=    1 I=  0.5 P=533.5514 MHz/au**3 
                Q  : Isotope=    2 I=  1.0 Q=  0.0029 barn      
                HFC: iso  =YES dip=YES orb=YES gauge=YES    
                EFG: fgrad= NO rho= NO                      
 -----------------------------------------------------------

 Total HFC matrix (all values in MHz): 
 ----------------------------------------------------------------
                -4.6386               2.3108               0.7890
                 2.3115             -16.2461              -3.7412
                 0.7895              -3.7412             -20.0711

 A(FC)         -13.6540             -13.6540             -13.6540
 A(SD)           9.4566              -0.5454              -8.9112
 A(ORB+DIA)      0.0023              -0.0008               0.0047    A(PC) =    0.0021
 A(ORB)          0.0011               0.0001               0.0049    A(PC) =    0.0020
 A(DIA)          0.0012              -0.0009              -0.0002    A(PC) =    0.0000
             ----------           ----------           ----------
 A(Tot)         -4.1950             -14.2002             -22.5605    A(iso)=  -13.6519
 Orientation: 
  X           0.9823697           -0.1540526           -0.1059126
  Y           0.1868871            0.8237423            0.5352774
  Z           0.0047838           -0.5456340            0.8380099

Notes:  (1) The A matrix conforms to the "SAI" spin Hamiltonian convention.
        (2) Tensor is right-handed.


Hyperfine and quadrupole coupling calculation done in  24.3 sec 

Maximum memory used throughout the entire PROP-calculation: 151.0 MB

--------------------------------
SUGGESTED CITATIONS FOR THIS RUN
--------------------------------

Below you find a list of papers that are relevant to this ORCA run
We neither can nor want to force you to cite these papers, but we appreciate if you do
You receive ORCA, which is the product of decades of hard work by many enthusiastic individuals, for free
The only thing we kindly ask in return is that you cite our papers,
We deeply appreciate it, if you show your appreciation for ORCA by not just citing the generic ORCA reference.

Please note that relegating all ORCA citations to the supporting information does *not* help us.
SI sections are not indexed - citations you put there will not count into any citation statistics
But we need these citations in order to attract the funding resources that allow us to do what we are doing

Therefore, if you are a happy ORCA user, please consider citing a few of the papers listed below in the main body of your paper

In addition to the list printed below, the program has created the file TrpC-rotated-A.bibtex that contains the list in bibtex format
You can import this file easily into all common literature databanks and citation aid programs


List of essential papers. We consider these as the minimum necessary citations

  1. Neese,F.
     Software update: the ORCA program system, version 5.0
     WIRES Comput. Molec. Sci., 2022 12(1)e1606
     doi.org/10.1002/wcms.1606

List of papers to cite with high priority. The work reported in these papers was absolutely
necessary for this run to complete.
Our perspective: the developers of density functionals and basis sets usually get cited in chemistry papers
Good! But without the algorithms to do something with them, the functionals or basis sets would not do anything.
Hence, in our opinion, the algorithm design and method developments papers are equally worthy of getting cited

  1. Neese,F.
     An improvement of the resolution of the identity approximation for the formation of the Coulomb matrix
     J. Comp. Chem., 2003 24(14)1740-1747
     doi.org/10.1002/jcc.10318
  2. Neese,F.
     Metal and ligand hyperfine couplings in transition metal complexes: The effect of spin-orbit coupling as studied by coupled perturbed Kohn-Sham theory
     J. Chem. Phys., 2003 118(9)3939-3948
     doi.org/10.1063/1.1540619
  3. Neese,F.; Wennmohs,F.; Hansen,A.; Becker,U.
     Efficient, approximate and parallel Hartree-Fock and hybrid DFT calculations. A 'chain-of-spheres' algorithm for the Hartree-Fock exchange
     Chem. Phys., 2009 356(1-3)98-109
     doi.org/10.1016/j.chemphys.2008.10.036
  4. Helmich-Paris,B.; de Souza,B.; Neese,F.; Izsák,R.
     An improved chain of spheres for exchange algorithm
     J. Chem. Phys., 2021 155 104109
     doi.org/doi: 10.1063/5.0058766.
  5. Neese,F.
     The SHARK Integral Generation and Digestion System
     J. Comp. Chem., 2022  1-16
     doi.org/10.1002/jcc.26942
  6. Caldeweyher,E.; Bannwarth,C.; Grimme,S.
     Extension of the D3 dispersion coefficient model
     J. Chem. Phys., 2017 147 034112-XXXX
     doi.org/10.1063/1.4993215
  7. Caldeweyher,E.; Ehlert,S.; Hansen,A.; Neugebauer,H.; Spicher,S.; Bannwarth,C.; Grimme,S.
     A generally applicable atomic-charge dependent London dispersion correction
     J. Chem. Phys., 2019 150 154122-XXXX
     doi.org/10.1063/1.5090222
  8. Caldeweyher,E.; Mewes,J.; Ehlert,S.; Grimme,S.
     Extension and evaluation of the D4 London-dispersion model for periodic systems
     Phys. Chem. Chem. Phys., 2020 22(16)8499-8512
     doi.org/10.1039/D0CP00502A

List of suggested additional citations. These are papers that are important in the 'surrounding' of 
of this run, or papers that preceded the highly important papers. If you like your results we are grateful for a citation.

  1. Neese,F.
     Theoretical study of ligand superhyperfine structure. Application to Cu(II) complexes
     J. Phys. Chem. A, 2001 105(17)4290-4299
     doi.org/10.1021/jp003254f
  2. Izsak,R.; Neese,F.
     An overlap fitted chain of spheres exchange method
     J. Chem. Phys., 2011 135 144105
     doi.org/10.1063/1.3646921
  3. Izsak,R.; Hansen,A.; Neese,F.
     The resolution of identity and chain of spheres approximations for the LPNO-CCSD singles Fock term
     Molec. Phys., 2012 110 2413-2417
     doi.org/10.1080/00268976.2012.687466
  4. Neese,F.
     The ORCA program system
     WIRES Comput. Molec. Sci., 2012 2(1)73-78
     doi.org/10.1002/wcms.81
  5. Izsak,R.; Neese,F.; Klopper,W.
     Robust fitting techniques in the chain of spheres approximation to the Fock exchange: The role of the complementary space
     J. Chem. Phys., 2013 139 
     doi.org/10.1063/1.4819264
  6. Neese,F.
     Software update: the ORCA program system, version 4.0
     WIRES Comput. Molec. Sci., 2018 8(1)1-6
     doi.org/10.1002/wcms.1327
  7. Neese,F.; Wennmohs,F.; Becker,U.; Riplinger,C.
     The ORCA quantum chemistry program package
     J. Chem. Phys., 2020 152 Art. No. L224108
     doi.org/10.1063/5.0004608

List of optional additional citations

  1. Neese,F.
     Approximate second-order SCF convergence for spin unrestricted wavefunctions
     Chem. Phys. Lett., 2000 325(1-3)93-98
     doi.org/10.1016/s0009-2614(00)00662-x

Timings for individual modules:

Sum of individual times          ...      314.070 sec (=   5.235 min)
Startup calculation              ...        2.910 sec (=   0.048 min)   0.9 %
SCF iterations                   ...      112.405 sec (=   1.873 min)  35.8 %
Property integrals               ...        9.124 sec (=   0.152 min)   2.9 %
SCF Response                     ...      164.362 sec (=   2.739 min)  52.3 %
Property calculations            ...       25.269 sec (=   0.421 min)   8.0 %
                             ****ORCA TERMINATED NORMALLY****
TOTAL RUN TIME: 0 days 0 hours 5 minutes 14 seconds 848 msec
