
                                 *****************
                                 * O   R   C   A *
                                 *****************

                                            #,                                       
                                            ###                                      
                                            ####                                     
                                            #####                                    
                                            ######                                   
                                           ########,                                 
                                     ,,################,,,,,                         
                               ,,#################################,,                 
                          ,,##########################################,,             
                       ,#########################################, ''#####,          
                    ,#############################################,,   '####,        
                  ,##################################################,,,,####,       
                ,###########''''           ''''###############################       
              ,#####''   ,,,,##########,,,,          '''####'''          '####       
            ,##' ,,,,###########################,,,                        '##       
           ' ,,###''''                  '''############,,,                           
         ,,##''                                '''############,,,,        ,,,,,,###''
      ,#''                                            '''#######################'''  
     '                                                          ''''####''''         
             ,#######,   #######,   ,#######,      ##                                
            ,#'     '#,  ##    ##  ,#'     '#,    #''#        ,####,   ,####,        
            ##       ##  ##   ,#'  ##            #'  '#       #'       #'  '#        
            ##       ##  #######   ##           ,######,      #####,   #    #        
            '#,     ,#'  ##    ##  '#,     ,#' ,#      #,     #,   #   #,  ,#        
             '#######'   ##     ##  '#######'  #'      '#     '####' # '####'        



                #########################################################
                #                        -***-                          #
                #          Department of theory and spectroscopy        #
                #                                                       #
                #                      Frank Neese                      #
                #                                                       #
                #     Directorship, Architecture, Infrastructure        #
                #                    SHARK, DRIVERS                     #
                #        Core code/Algorithms in most modules           #
                #                                                       #
                #        Max Planck Institute fuer Kohlenforschung      #
                #                Kaiser Wilhelm Platz 1                 #
                #                 D-45470 Muelheim/Ruhr                 #
                #                      Germany                          #
                #                                                       #
                #                  All rights reserved                  #
                #                        -***-                          #
                #########################################################


                         Program Version 6.0.0  -   RELEASE  -


 With contributions from (in alphabetic order):
   Daniel Aravena         : Magnetic Suceptibility
   Michael Atanasov       : Ab Initio Ligand Field Theory (pilot matlab implementation)
   Alexander A. Auer      : GIAO ZORA, VPT2 properties, NMR spectrum
   Ute Becker             : All parallelization in ORCA, NUMFREQ, NUMCALC
   Giovanni Bistoni       : ED, misc. LED, open-shell LED, HFLD
   Martin Brehm           : Molecular dynamics
   Dmytro Bykov           : pre 5.0 version of the SCF Hessian
   Marcos Casanova-Páez   : Triplet and SCS-CIS(D). UHF-(DLPNO)-IP/EA/STEOM-CCSD. UHF-CVS-IP/STEOM-CCSD
   Vijay G. Chilkuri      : MRCI spin determinant printing, contributions to CSF-ICE
   Pauline Colinet        : FMM embedding
   Dipayan Datta          : RHF DLPNO-CCSD density
   Achintya Kumar Dutta   : EOM-CC, STEOM-CC
   Nicolas Foglia         : Exact transition moments, OPA infrastructure, MCD improvements
   Dmitry Ganyushin       : Spin-Orbit,Spin-Spin,Magnetic field MRCI
   Miquel Garcia          : C-PCM and meta-GGA Hessian, CCSD/C-PCM, Gaussian charge scheme
   Tiago L. C. Gouveia    : GS-ROHF, GS-ROCIS
   Yang Guo               : DLPNO-NEVPT2, F12-NEVPT2, CIM, IAO-localization
   Andreas Hansen         : Spin unrestricted coupled pair/coupled cluster methods
   Ingolf Harden          : AUTO-CI MPn and infrastructure 
   Benjamin Helmich-Paris : MC-RPA, TRAH-(SCF,CASSCF), AVAS, COSX integrals, SCF dyn. polar.
   Lee Huntington         : MR-EOM, pCC
   Robert Izsak           : Overlap fitted RIJCOSX, COSX-SCS-MP3, EOM
   Riya Kayal             : Wick's Theorem for AUTO-CI, AUTO-CI UHF-CCSDT
   Emily Kempfer          : AUTO-CI, RHF CISDT and CCSDT
   Christian Kollmar      : KDIIS, OOCD, Brueckner-CCSD(T), CCSD density, CASPT2, CASPT2-K, improved NEVPT2
   Axel Koslowski         : Symmetry handling
   Simone Kossmann        : Meta GGA functionals, TD-DFT gradient, OOMP2, (MP2 Hessian; deprecated post 5.0)
   Lucas Lang             : DCDCAS
   Marvin Lechner         : AUTO-CI (C++ implementation), FIC-MRCC
   Spencer Leger          : CASSCF response
   Dagmar Lenk            : GEPOL surface, SMD, ORCA-2-JSON
   Dimitrios Liakos       : Extrapolation schemes; Compound Job, initial MDCI parallelization
   Dimitrios Manganas     : Further ROCIS development; embedding schemes. LFT, Crystal Embedding
   Dimitrios Pantazis     : SARC Basis sets
   Anastasios Papadopoulos: AUTO-CI, single reference methods and gradients
   Taras Petrenko         : pre 6.0 DFT Hessian and TD-DFT gradient, (ASA, deprecated), ECA, 1-Electron XAS/XES, NRVS
   Peter Pinski           : DLPNO-MP2, DLPNO-MP2 Gradient
   Christoph Reimann      : Effective Core Potentials
   Marius Retegan         : Local ZFS, SOC
   Christoph Riplinger    : Optimizer, TS searches, QM/MM, DLPNO-CCSD(T), (RO)-DLPNO pert. Triples
   Michael Roemelt        : Original ROCIS implementation
   Masaaki Saitow         : Open-shell DLPNO-CCSD energy and density
   Barbara Sandhoefer     : DKH picture change effects
   Kantharuban Sivalingam : CASSCF convergence/infrastructure, NEVPT2 and variants, FIC-MRCI
   Bernardo de Souza      : ESD, SOC TD-DFT
   Georgi Stoychev        : AutoAux, RI-MP2 NMR, DLPNO-MP2 response, X2C
   Van Anh Tran           : RI-MP2 g-tensors
   Willem Van den Heuvel  : Paramagnetic NMR
   Zikuan Wang            : NOTCH, Electric field optimization 
   Frank Wennmohs         : Technical directorship and infrastructure
   Hang Xu                : AUTO-CI-Response properties 


 We gratefully acknowledge several colleagues who have allowed us to
 interface, adapt or use parts of their codes:
   Stefan Grimme, W. Hujo, H. Kruse, P. Pracht,  : VdW corrections, initial TS optimization,
                  C. Bannwarth, S. Ehlert,         DFT functionals, gCP, sTDA/sTD-DF
                  L. Wittmann, M. Mueller
   Ed Valeev, F. Pavosevic, A. Kumar             : LibInt (2-el integral package), F12 methods
   Garnet Chan, S. Sharma, J. Yang, R. Olivares  : DMRG
   Ulf Ekstrom                                   : XCFun DFT Library
   Mihaly Kallay                                 : mrcc  (arbitrary order and MRCC methods)
   Frank Weinhold                                : gennbo (NPA and NBO analysis)
   Simon Mueller                                 : openCOSMO-RS
   Christopher J. Cramer and Donald G. Truhlar   : smd solvation model
   Lars Goerigk                                  : TD-DFT with DH, B97 family of functionals
   V. Asgeirsson, H. Jonsson                     : NEB implementation
   FAccTs GmbH                                   : IRC, NEB, NEB-TS, DLPNO-Multilevel, CI-OPT
                                                   MM, QMMM, 2- and 3-layer-ONIOM, Crystal-QMMM,
                                                   LR-CPCM, SF, NACMEs, symmetry and pop. for TD-DFT,
                                                   nearIR, NL-DFT gradient (VV10), updates on ESD,
                                                   ML-optimized integration grids, MBIS, APM,
                                                   GOAT, DOCKER, SOLVATOR, interface openCOSMO-RS
   S Lehtola, MJT Oliveira, MAL Marques          : LibXC Library
   Liviu Ungur et al                             : ANISO software


 Your calculation uses the libint2 library for the computation of 2-el integrals
 For citations please refer to: http://libint.valeyev.net

 Your ORCA version has been built with support for libXC version: 6.2.2
 For citations please refer to: https://libxc.gitlab.io

 This ORCA versions uses:
   CBLAS   interface :  Fast vector & matrix operations
   LAPACKE interface :  Fast linear algebra routines
   SCALAPACK package :  Parallel linear algebra routines
   Shared memory     :  Shared parallel matrices
   BLAS/LAPACK       :  OpenBLAS 0.3.27  USE64BITINT DYNAMIC_ARCH NO_AFFINITY SkylakeX SINGLE_THREADED
        Core in use  :  SkylakeX
   Copyright (c) 2011-2014, The OpenBLAS Project


Your calculation utilizes the atom-pairwise dispersion correction
based on EEQ partial charges (D4)


Warning: RI is on but no J-basis has been assigned. Assigning Def2/J (nothing to worry about!)
================================================================================

----- Orbital basis set information -----
Your calculation utilizes the basis: EPR-III
   V. Barone, in Recent Advances in Density Functional Methods, Part 1 (ed. D. P. Chong), World Scientific, Singapore, 1995, p. 287.
   N. Rega, M. Cossi and V. Barone, J. Chem. Phys. 105, 11060 (1996).

----- AuxJ basis set information -----
Your calculation utilizes the auxiliary basis: def2/J
   F. Weigend, Phys. Chem. Chem. Phys. 8, 1057 (2006).

================================================================================
                                        WARNINGS
                       Please study these warnings very carefully!
================================================================================


================================================================================
                                       INPUT FILE
================================================================================
NAME = TrpD-rotated-A.inp
|  1> !UKS wB97X-D4 EPR-III TightSCF
|  2> 
|  3> # TrpC Hyperfine hydrogen position
|  4> 
|  5> %pal
|  6>    nprocs 24
|  7> end
|  8> 
|  9> *xyz 1 2
| 10> N        9.13550788     -16.82025191      -0.68031967
| 11> C        9.67414938     -16.85833920       0.66044269
| 12> C       10.85174920     -15.92279520       0.88042528
| 13> O       11.70122216     -16.13247980       1.71226721
| 14> C       10.12738538     -18.29565365       1.02460621
| 15> C       10.08815075     -18.53783527       2.48684086
| 16> C       11.24418843     -18.60383532       3.32991432
| 17> C        8.97480162     -18.60015251       3.35485720
| 18> N       10.87417430     -18.71606473       4.59240272
| 19> C        9.46416254     -18.71728005       4.67522790
| 20> C        7.58604442     -18.58191279       3.13724799
| 21> C        8.64978419     -18.80755802       5.77171386
| 22> C        6.74668054     -18.67030421       4.23480183
| 23> C        7.26799740     -18.78041569       5.52626417
| 24> O       10.81722745     -14.83722943       0.10940490
| 25> H       11.57943551     -14.27774580       0.32614492
| 26> H        9.16465622     -15.89002451      -1.07641092
| 27> H        8.18241083     -17.15577166      -0.71296050
| 28> H        8.94410562     -16.53138797       1.42046663
| 29> H       11.11852314     -18.49004317       0.61626997
| 30> H        9.42898326     -18.97951435       0.53283155
| 31> H       12.28183192     -18.55287721       3.03186281
| 32> H       11.50505459     -18.77472963       5.37853898
| 33> H        7.18136970     -18.50876390       2.13431505
| 34> H        9.03621818     -18.89579942       6.78024765
| 35> H        5.67260902     -18.65884410       4.09606946
| 36> H        6.58749924     -18.84996534       6.36716644
| 37> *
| 38> 
| 39> %eprnmr
| 40>     Nuclei = all N { aiso, adip, aorb }
| 41>     Nuclei = all H { aiso, adip, aorb }
| 42> end
| 43> 
| 44> 
| 45>                          ****END OF INPUT****
================================================================================

                       ****************************
                       * Single Point Calculation *
                       ****************************

---------------------------------
CARTESIAN COORDINATES (ANGSTROEM)
---------------------------------
  N      9.135508  -16.820252   -0.680320
  C      9.674149  -16.858339    0.660443
  C     10.851749  -15.922795    0.880425
  O     11.701222  -16.132480    1.712267
  C     10.127385  -18.295654    1.024606
  C     10.088151  -18.537835    2.486841
  C     11.244188  -18.603835    3.329914
  C      8.974802  -18.600153    3.354857
  N     10.874174  -18.716065    4.592403
  C      9.464163  -18.717280    4.675228
  C      7.586044  -18.581913    3.137248
  C      8.649784  -18.807558    5.771714
  C      6.746681  -18.670304    4.234802
  C      7.267997  -18.780416    5.526264
  O     10.817227  -14.837229    0.109405
  H     11.579436  -14.277746    0.326145
  H      9.164656  -15.890025   -1.076411
  H      8.182411  -17.155772   -0.712960
  H      8.944106  -16.531388    1.420467
  H     11.118523  -18.490043    0.616270
  H      9.428983  -18.979514    0.532832
  H     12.281832  -18.552877    3.031863
  H     11.505055  -18.774730    5.378539
  H      7.181370  -18.508764    2.134315
  H      9.036218  -18.895799    6.780248
  H      5.672609  -18.658844    4.096069
  H      6.587499  -18.849965    6.367166

----------------------------
CARTESIAN COORDINATES (A.U.)
----------------------------
  NO LB      ZA    FRAG     MASS         X           Y           Z
   0 N     7.0000    0    14.007   17.263608  -31.785670   -1.285618
   1 C     6.0000    0    12.011   18.281493  -31.857644    1.248056
   2 C     6.0000    0    12.011   20.506834  -30.089722    1.663763
   3 O     8.0000    0    15.999   22.112105  -30.485969    3.235716
   4 C     6.0000    0    12.011   19.137985  -34.573775    1.936225
   5 C     6.0000    0    12.011   19.063842  -35.031432    4.699448
   6 C     6.0000    0    12.011   21.248437  -35.156154    6.292626
   7 C     6.0000    0    12.011   16.959917  -35.149194    6.339761
   8 N     7.0000    0    14.007   20.549211  -35.368237    8.678383
   9 C     6.0000    0    12.011   17.884675  -35.370533    8.834900
  10 C     6.0000    0    12.011   14.335546  -35.114726    5.928540
  11 C     6.0000    0    12.011   16.345723  -35.541134   10.906959
  12 C     6.0000    0    12.011   12.749379  -35.281762    8.002616
  13 C     6.0000    0    12.011   13.734525  -35.489842   10.443126
  14 O     8.0000    0    15.999   20.441597  -28.038300    0.206745
  15 H     1.0000    0     1.008   21.881962  -26.981029    0.616325
  16 H     1.0000    0     1.008   17.318690  -30.027795   -2.034122
  17 H     1.0000    0     1.008   15.462516  -32.419710   -1.347300
  18 H     1.0000    0     1.008   16.901910  -31.239796    2.684293
  19 H     1.0000    0     1.008   21.010964  -34.941118    1.164581
  20 H     1.0000    0     1.008   17.818196  -35.866084    1.006906
  21 H     1.0000    0     1.008   23.209299  -35.059857    5.729390
  22 H     1.0000    0     1.008   21.741402  -35.479097   10.163966
  23 H     1.0000    0     1.008   13.570822  -34.976495    4.033271
  24 H     1.0000    0     1.008   17.075978  -35.707886   12.812811
  25 H     1.0000    0     1.008   10.719678  -35.260105    7.740450
  26 H     1.0000    0     1.008   12.448569  -35.621272   12.032201

--------------------------------
INTERNAL COORDINATES (ANGSTROEM)
--------------------------------
 N      0   0   0     0.000000000000     0.00000000     0.00000000
 C      1   0   0     1.445416553515     0.00000000     0.00000000
 C      2   1   0     1.519992188106   114.00019624     0.00000000
 O      3   2   1     1.207283288112   122.54381085   206.84391191
 C      2   1   3     1.550455020042   110.56274891   238.02295283
 C      5   2   1     1.482673755388   112.04431744   206.38644141
 C      6   5   2     1.432323979809   124.51764884   254.49009770
 C      6   5   2     1.413110784822   129.33425586    66.74508994
 N      7   6   5     1.320372241833   109.90970647   174.63410484
 C      9   7   6     1.412442795579   109.62694000   359.35720046
 C      8   6   5     1.405821118142   133.05135281     6.70810800
 C     10   9   7     1.368811042216   129.86337644   180.27196483
 C     11   8   6     1.384546567609   118.38179105   179.59174203
 C     13  11   8     1.397057902231   120.77129716   359.74259753
 O      3   2   1     1.331959916287   113.43939936    29.44727870
 H     15   3   2     0.970030564073   108.68535426   178.12018699
 H      1   2   3     1.011464739752   112.13207663   324.03802565
 H      1   2   3     1.010956434839   111.87179891   201.67888028
 H      2   1   3     1.103402640783   112.61647607   117.31275133
 H      5   2   1     1.089440145066   110.07947870    81.85888124
 H      5   2   1     1.094199842096   106.69246067   325.50758645
 H      7   6   5     1.080803147630   127.61732991   355.86126169
 H      9   7   6     1.009683975355   125.05084476   180.39555706
 H     11   8   6     1.083968113577   120.85658213     0.09258450
 H     12  10   9     1.083631938839   122.59789192   359.96960451
 H     13  11   8     1.083054769936   119.93330152   180.01551334
 H     14  13  11     1.083988711781   119.20365976   180.11941538

---------------------------
INTERNAL COORDINATES (A.U.)
---------------------------
 N      0   0   0     0.000000000000     0.00000000     0.00000000
 C      1   0   0     2.731441435579     0.00000000     0.00000000
 C      2   1   0     2.872368961220   114.00019624     0.00000000
 O      3   2   1     2.281434780592   122.54381085   206.84391191
 C      2   1   3     2.929935370843   110.56274891   238.02295283
 C      5   2   1     2.801847343637   112.04431744   206.38644141
 C      6   5   2     2.706700056887   124.51764884   254.49009770
 C      6   5   2     2.670392380204   129.33425586    66.74508994
 N      7   6   5     2.495141931896   109.90970647   174.63410484
 C      9   7   6     2.669130063474   109.62694000   359.35720046
 C      8   6   5     2.656616906572   133.05135281     6.70810800
 C     10   9   7     2.586677998876   129.86337644   180.27196483
 C     11   8   6     2.616413832441   118.38179105   179.59174203
 C     13  11   8     2.640056828447   120.77129716   359.74259753
 O      3   2   1     2.517039463142   113.43939936    29.44727870
 H     15   3   2     1.833092107632   108.68535426   178.12018699
 H      1   2   3     1.911391352250   112.13207663   324.03802565
 H      1   2   3     1.910430795171   111.87179891   201.67888028
 H      2   1   3     2.085128806525   112.61647607   117.31275133
 H      5   2   1     2.058743513474   110.07947870    81.85888124
 H      5   2   1     2.067738037341   106.69246067   325.50758645
 H      7   6   5     2.042421953701   127.61732991   355.86126169
 H      9   7   6     1.908026195230   125.05084476   180.39555706
 H     11   8   6     2.048402872564   120.85658213     0.09258450
 H     12  10   9     2.047767594377   122.59789192   359.96960451
 H     13  11   8     2.046676903217   119.93330152   180.01551334
 H     14  13  11     2.048441797529   119.20365976   180.11941538

---------------------
BASIS SET INFORMATION
---------------------
There are 4 groups of distinct atoms

 Group   1 Type N   : 12s8p2d1f contracted to 8s5p2d1f pattern {51111111/41111/11/1}
 Group   2 Type C   : 12s8p2d1f contracted to 8s5p2d1f pattern {51111111/41111/11/1}
 Group   3 Type O   : 12s8p2d1f contracted to 8s5p2d1f pattern {51111111/41111/11/1}
 Group   4 Type H   : 7s2p contracted to 5s2p pattern {31111/11}

Atom   0N    basis set group =>   1
Atom   1C    basis set group =>   2
Atom   2C    basis set group =>   2
Atom   3O    basis set group =>   3
Atom   4C    basis set group =>   2
Atom   5C    basis set group =>   2
Atom   6C    basis set group =>   2
Atom   7C    basis set group =>   2
Atom   8N    basis set group =>   1
Atom   9C    basis set group =>   2
Atom  10C    basis set group =>   2
Atom  11C    basis set group =>   2
Atom  12C    basis set group =>   2
Atom  13C    basis set group =>   2
Atom  14O    basis set group =>   3
Atom  15H    basis set group =>   4
Atom  16H    basis set group =>   4
Atom  17H    basis set group =>   4
Atom  18H    basis set group =>   4
Atom  19H    basis set group =>   4
Atom  20H    basis set group =>   4
Atom  21H    basis set group =>   4
Atom  22H    basis set group =>   4
Atom  23H    basis set group =>   4
Atom  24H    basis set group =>   4
Atom  25H    basis set group =>   4
Atom  26H    basis set group =>   4
---------------------------------
AUXILIARY/J BASIS SET INFORMATION
---------------------------------
There are 4 groups of distinct atoms

 Group   1 Type N   : 12s5p4d2f1g contracted to 6s4p3d1f1g pattern {711111/2111/211/2/1}
 Group   2 Type C   : 12s5p4d2f1g contracted to 6s4p3d1f1g pattern {711111/2111/211/2/1}
 Group   3 Type O   : 12s5p4d2f1g contracted to 6s4p3d1f1g pattern {711111/2111/211/2/1}
 Group   4 Type H   : 5s2p1d contracted to 3s1p1d pattern {311/2/1}

Atom   0N    basis set group =>   1
Atom   1C    basis set group =>   2
Atom   2C    basis set group =>   2
Atom   3O    basis set group =>   3
Atom   4C    basis set group =>   2
Atom   5C    basis set group =>   2
Atom   6C    basis set group =>   2
Atom   7C    basis set group =>   2
Atom   8N    basis set group =>   1
Atom   9C    basis set group =>   2
Atom  10C    basis set group =>   2
Atom  11C    basis set group =>   2
Atom  12C    basis set group =>   2
Atom  13C    basis set group =>   2
Atom  14O    basis set group =>   3
Atom  15H    basis set group =>   4
Atom  16H    basis set group =>   4
Atom  17H    basis set group =>   4
Atom  18H    basis set group =>   4
Atom  19H    basis set group =>   4
Atom  20H    basis set group =>   4
Atom  21H    basis set group =>   4
Atom  22H    basis set group =>   4
Atom  23H    basis set group =>   4
Atom  24H    basis set group =>   4
Atom  25H    basis set group =>   4
Atom  26H    basis set group =>   4


           ************************************************************
           *        Program running with 24 parallel MPI-processes    *
           *              working on a common directory               *
           ************************************************************
------------------------------------------------------------------------------
                             ORCA STARTUP CALCULATIONS
                           -- RI-GTO INTEGRALS CHOSEN --
------------------------------------------------------------------------------
------------------------------------------------------------------------------
                   ___                                                        
                  /   \      - P O W E R E D   B Y -                         
                 /     \                                                     
                 |  |  |   _    _      __       _____    __    __             
                 |  |  |  | |  | |    /  \     |  _  \  |  |  /  |          
                  \  \/   | |  | |   /    \    | | | |  |  | /  /          
                 / \  \   | |__| |  /  /\  \   | |_| |  |  |/  /          
                |  |  |   |  __  | /  /__\  \  |    /   |      \           
                |  |  |   | |  | | |   __   |  |    \   |  |\   \          
                \     /   | |  | | |  |  |  |  | |\  \  |  | \   \       
                 \___/    |_|  |_| |__|  |__|  |_| \__\ |__|  \__/        
                                                                              
                      - O R C A' S   B I G   F R I E N D -                    
                                      &                                       
                       - I N T E G R A L  F E E D E R -                       
                                                                              
 v1 FN, 2020, v2 2021, v3 2022-2024                                           
------------------------------------------------------------------------------


----------------------
SHARK INTEGRAL PACKAGE
----------------------

Number of atoms                             ...     27
Number of basis functions                   ...    732
Number of shells                            ...    324
Maximum angular momentum                    ...      3
Integral batch strategy                     ... SHARK/LIBINT Hybrid
RI-J (if used) integral strategy            ... SPLIT-RIJ (Revised 2003 algorithm where possible)
Printlevel                                  ...      1
Contraction scheme used                     ... SEGMENTED contraction
Prescreening option                         ... SCHWARTZ
   Thresh                                   ... 2.500e-11
   Tcut                                     ... 2.500e-12
   Tpresel                                  ... 2.500e-12 
Coulomb Range Separation                    ... NOT USED
Exchange Range Separation                   ... Long Range
   Mu parameter                             ... 3.000e-01
   Scaling (regular/separated)              ... 1.670e-01 8.330e-01
Multipole approximations                    ... NOT USED
Finite Nucleus Model                        ... NOT USED
CABS basis                                  ... NOT available
Auxiliary Coulomb fitting basis             ... AVAILABLE
   # of basis functions in Aux-J            ...    867
   # of shells in Aux-J                     ...    285
   Maximum angular momentum in Aux-J        ...      4
Auxiliary J/K fitting basis                 ... NOT available
Auxiliary Correlation fitting basis         ... NOT available
Auxiliary 'external' fitting basis          ... NOT available

Checking pre-screening integrals            ... done (  0.0 sec) Dimension = 324
Check shell pair data                       ... done (  0.0 sec)
Shell pair information
Shell pair cut-off parameter TPreSel        ...   2.5e-12
Total number of shell pairs                 ...     52650
Shell pairs after pre-screening             ...     39938
Total number of primitive shell pairs       ...    103107
Primitive shell pairs kept                  ...     62317
          la=0 lb=0:  11119 shell pairs
          la=1 lb=0:  14078 shell pairs
          la=1 lb=1:   4303 shell pairs
          la=2 lb=0:   4010 shell pairs
          la=2 lb=1:   2506 shell pairs
          la=2 lb=2:    384 shell pairs
          la=3 lb=0:   1875 shell pairs
          la=3 lb=1:   1218 shell pairs
          la=3 lb=2:    351 shell pairs
          la=3 lb=3:     94 shell pairs

Calculating one electron integrals          ... done (  0.0 sec)
Calculating RI/J V-Matrix + Cholesky decomp.... done (  0.0 sec)
Calculating Nuclear repulsion               ... done (  0.0 sec) ENN=    966.354480415930 Eh

Diagonalization of the overlap matrix:
Smallest eigenvalue                        ... 3.523e-08
Time for diagonalization                   ...    0.086 sec
Threshold for overlap eigenvalues          ... 1.000e-07
Number of eigenvalues below threshold      ... 2
Smallest eigenvalue above threshold        ... 1.714e-07

IMPORTANT:
Smallest eigenvalue of S below the DiffSThresh (1.000e-06) while
Thresh>1e-12 and/or TCut>1e-13! In order to avoid SCF convergence issues,
Thresh will be set to at least 1e-12 and TCut to at least 1e-13.
This can be turned off by adding %SCF DiffSThresh -1 END to the input.

Time for construction of square roots      ...    0.032 sec
Total time needed                          ...    0.122 sec

-------------------
DFT GRID GENERATION
-------------------

General Integration Accuracy     IntAcc      ... 4.388
Radial Grid Type                 RadialGrid  ... OptM3 with GC (2021)
Angular Grid (max. ang.)         AngularGrid ... 4 (Lebedev-302)
Angular grid pruning method      GridPruning ... 4 (adaptive)
Weight generation scheme         WeightScheme... mBecke (2022)
Basis function cutoff            BFCut       ... 1.0000e-11
Integration weight cutoff        WCut        ... 1.0000e-14
Partially contracted basis set               ... off
Rotationally invariant grid construction     ... off
Angular grids for H and He will be reduced by one unit
Diffuse basis detected: some atoms will have their outermost
                        angular grid increased by 1.

Total number of grid points                  ...   134012
Total number of batches                      ...     2107
Average number of points per batch           ...       63
Average number of grid points per atom       ...     4963

--------------------
COSX GRID GENERATION
--------------------

GRIDX 1
-------
General Integration Accuracy     IntAcc      ... 3.816
Radial Grid Type                 RadialGrid  ... OptM3 with GC (2021)
Angular Grid (max. ang.)         AngularGrid ... 1 (Lebedev-50)
Angular grid pruning method      GridPruning ... 4 (adaptive)
Weight generation scheme         WeightScheme... mBecke (2022)
Basis function cutoff            BFCut       ... 1.0000e-11
Integration weight cutoff        WCut        ... 1.0000e-14
Partially contracted basis set               ... on
Rotationally invariant grid construction     ... off
Angular grids for H and He will be reduced by one unit
Diffuse basis detected: some atoms will have their outermost
                        angular grid increased by 1.

Total number of grid points                  ...    16810
Total number of batches                      ...      144
Average number of points per batch           ...      116
Average number of grid points per atom       ...      623
UseSFitting                                  ... on

GRIDX 2
-------
General Integration Accuracy     IntAcc      ... 4.020
Radial Grid Type                 RadialGrid  ... OptM3 with GC (2021)
Angular Grid (max. ang.)         AngularGrid ... 2 (Lebedev-110)
Angular grid pruning method      GridPruning ... 4 (adaptive)
Weight generation scheme         WeightScheme... mBecke (2022)
Basis function cutoff            BFCut       ... 1.0000e-11
Integration weight cutoff        WCut        ... 1.0000e-14
Partially contracted basis set               ... on
Rotationally invariant grid construction     ... off
Angular grids for H and He will be reduced by one unit
Diffuse basis detected: some atoms will have their outermost
                        angular grid increased by 1.

Total number of grid points                  ...    40501
Total number of batches                      ...      330
Average number of points per batch           ...      122
Average number of grid points per atom       ...     1500
UseSFitting                                  ... on

GRIDX 3
-------
General Integration Accuracy     IntAcc      ... 4.338
Radial Grid Type                 RadialGrid  ... OptM3 with GC (2021)
Angular Grid (max. ang.)         AngularGrid ... 3 (Lebedev-194)
Angular grid pruning method      GridPruning ... 4 (adaptive)
Weight generation scheme         WeightScheme... mBecke (2022)
Basis function cutoff            BFCut       ... 1.0000e-11
Integration weight cutoff        WCut        ... 1.0000e-14
Partially contracted basis set               ... on
Rotationally invariant grid construction     ... off
Angular grids for H and He will be reduced by one unit
Diffuse basis detected: some atoms will have their outermost
                        angular grid increased by 1.

Total number of grid points                  ...    89451
Total number of batches                      ...      711
Average number of points per batch           ...      125
Average number of grid points per atom       ...     3313
UseSFitting                                  ... on
Initializing property integral containers    ... done (  0.0 sec)

SHARK setup successfully completed in   2.2 seconds

Maximum memory used throughout the entire STARTUP-calculation: 67.0 MB


           ************************************************************
           *        Program running with 24 parallel MPI-processes    *
           *              working on a common directory               *
           ************************************************************
-------------------------------------------------------------------------------
                                 ORCA GUESS
                   Start orbitals & Density for SCF / CASSCF
-------------------------------------------------------------------------------

------------
SCF SETTINGS
------------
Hamiltonian:
 Density Functional     Method          .... DFT(GTOs)
 Exchange Functional    Exchange        .... WB97X-V
 Correlation Functional Correlation     .... WB97X-V
 Gradients option       PostSCFGGA      .... off
 Hybrid DFT is turned on
   Fraction HF Exchange ScalHFX         ....  0.167000
   Scaling of DF-GGA-X  ScalDFX         ....  0.000000
   Scaling of DF-GGA-C  ScalDFC         ....  1.000000
   Scaling of DF-LDA-C  ScalLDAC        ....  1.000000
   Perturbative correction              ....  0.000000
 Long-range corrected/Screened/Range-Separated Hybrid DFT is turned on
   Amount of maximum screened exact exchange              ....  0.833000
   Range separation parameter mu (erf(mu*r12)/r12)        ....  0.300000
 RI-approximation to the Coulomb term is turned on
   Number of AuxJ basis functions       .... 867
   RIJ-COSX (HFX calculated with COS-X)).... on


General Settings:
 Integral files         IntName         .... TrpD-rotated-A
 Hartree-Fock type      HFTyp           .... UHF
 Total Charge           Charge          ....    1
 Multiplicity           Mult            ....    2
 Number of Electrons    NEL             ....  107
 Basis Dimension        Dim             ....  732
 Nuclear Repulsion      ENuc            ....    966.3544804159 Eh

Convergence Acceleration:
 AO-DIIS                CNVDIIS         .... on
   Start iteration      DIISMaxIt       ....    12
   Startup error        DIISStart       ....  0.200000
   # of expansion vecs  DIISMaxEq       ....     5
   Bias factor          DIISBfac        ....   1.050
   Max. coefficient     DIISMaxC        ....  10.000
 MO-DIIS                CNVKDIIS        .... off
 Trust-Rad. Augm. Hess. CNVTRAH         .... auto
   Auto Start mean grad. ratio tolernc. ....  1.125000
   Auto Start start iteration           ....    50
   Auto Start num. interpolation iter.  ....    10
   Max. Number of Micro iterations      ....    24
   Max. Number of Macro iterations      .... Maxiter - #DIIS iter
   Number of Davidson start vectors     ....     2
   Converg. threshold    (grad. norm)   ....   1.000e-05
   Grad. Scal. Fac. for Micro threshold ....   0.100
   Minimum threshold for Micro iter.    ....   1.000e-02
   NR start threshold (gradient norm)   ....   1.000e-04
   Initial trust radius                 ....   0.400
   Minimum AH scaling param. (alpha)    ....   1.000
   Maximum AH scaling param. (alpha)    .... 1000.000
   Quad. conv. algorithm                .... NR
   White noise on init. David. guess    .... on
   Maximum white noise                  ....   0.010
   Pseudo random numbers                .... off
   Inactive MOs                         .... canonical
   Orbital update algorithm             .... Taylor
   Preconditioner                       .... Diag
   Full preconditioner red. dimension   ....   250
 SOSCF                  CNVSOSCF        .... on
   Start iteration      SOSCFMaxIt      ....   150
   Startup grad/error   SOSCFStart      ....  0.003300
   Hessian update       SOSCFHessUp     .... L-BFGS
 Level Shifting         CNVShift        .... on
   Level shift para.    LevelShift      ....    0.2500
   Turn off err/grad.   ShiftErr        ....    0.0010
 Zerner damping         CNVZerner       .... off
 Static damping         CNVDamp         .... on
   Fraction old density DampFac         ....    0.7000
   Max. Damping (<1)    DampMax         ....    0.9800
   Min. Damping (>=0)   DampMin         ....    0.0000
   Turn off err/grad.   DampErr         ....    0.1000

SCF Procedure:
 Maximum # iterations   MaxIter         ....   125
 SCF integral mode      SCFMode         .... Direct
   Integral package                     .... SHARK and LIBINT hybrid scheme
 Reset frequency        DirectResetFreq ....    20
 Integral Threshold     Thresh          ....  1.000e-12 Eh
 Primitive CutOff       TCut            ....  1.000e-13 Eh

Convergence Tolerance:
 Convergence Check Mode ConvCheckMode   .... Total+1el-Energy
 Convergence forced     ConvForced      .... 0
 Energy Change          TolE            ....  1.000e-08 Eh
 1-El. energy change                    ....  1.000e-05 Eh
 Orbital Gradient       TolG            ....  1.000e-05
 Orbital Rotation angle TolX            ....  1.000e-05
 DIIS Error             TolErr          ....  5.000e-07

------------------------------
INITIAL GUESS: MODEL POTENTIAL
------------------------------
Loading Hartree-Fock densities                     ... done
Calculating cut-offs                               ... done
Initializing the effective Hamiltonian             ... done
Setting up the integral package (SHARK)            ... done
Starting the Coulomb interaction                   ... done (   0.2 sec)
Making the grid                                    ... done (   0.2 sec)
Mapping shells                                     ... done
Starting the XC term evaluation                    ... done (   0.1 sec)
  promolecular density results
     # of electrons  =    107.996860223
     EX              =    -60.477630834
     EC              =     -4.511547913
     EX+EC           =    -64.989178748
Transforming the Hamiltonian                       ... done (   0.0 sec)
Diagonalizing the Hamiltonian                      ... done (   0.1 sec)
Back transforming the eigenvectors                 ... done (   0.0 sec)
Now organizing SCF variables                       ... done
                      ------------------
                      INITIAL GUESS DONE (   1.3 sec)
                      ------------------
             **** ENERGY FILE WAS UPDATED (TrpD-rotated-A.en.tmp) ****
Finished Guess after   2.0 sec
Maximum memory used throughout the entire GUESS-calculation: 57.6 MB


           ************************************************************
           *        Program running with 24 parallel MPI-processes    *
           *              working on a common directory               *
           ************************************************************

-------------------------------------------------------------------------------------------
                                      ORCA LEAN-SCF
                              memory conserving SCF solver
-------------------------------------------------------------------------------------------

----------------------------------------D-I-I-S--------------------------------------------
Iteration    Energy (Eh)           Delta-E    RMSDP     MaxDP     DIISErr   Damp  Time(sec)
-------------------------------------------------------------------------------------------
               ***  Starting incremental Fock matrix formation  ***
    1    -686.4426699339120432     0.00e+00  1.97e-03  4.83e-01  2.05e-01  0.700   9.0
    2    -686.4951243714284601    -5.25e-02  1.60e-03  3.85e-01  1.39e-01  0.700   5.1
                               ***Turning on AO-DIIS***
    3    -686.5259546906762580    -3.08e-02  1.20e-03  2.78e-01  9.58e-02  0.700   4.3
    4    -686.5459764274897907    -2.00e-02  2.96e-03  6.50e-01  6.68e-02  0.000   4.6
    5    -686.5956490157019516    -4.97e-02  2.75e-04  7.59e-02  4.46e-03  0.000   4.6
                              *** Initializing SOSCF ***
---------------------------------------S-O-S-C-F--------------------------------------
Iteration    Energy (Eh)           Delta-E    RMSDP     MaxDP     MaxGrad    Time(sec)
--------------------------------------------------------------------------------------
    6    -686.5965827467033478    -9.34e-04  1.68e-04  5.22e-02  1.84e-03    11.5
               *** Restarting incremental Fock matrix formation ***
    7    -686.5969045024056641    -3.22e-04  2.50e-04  8.65e-02  2.61e-03     9.8
    8    -686.5971468592780411    -2.42e-04  2.19e-04  7.67e-02  1.47e-03     7.3
    9    -686.5973125796634804    -1.66e-04  5.95e-05  1.86e-02  8.61e-04     7.3
   10    -686.5973391984433647    -2.66e-05  5.64e-05  1.95e-02  7.84e-04     7.3
   11    -686.5973639784491525    -2.48e-05  4.56e-05  1.32e-02  4.14e-04     8.0
   12    -686.5973793897040878    -1.54e-05  2.90e-05  9.72e-03  2.29e-04     7.5
   13    -686.5973810016154175    -1.61e-06  1.02e-05  3.13e-03  1.51e-04     6.5
   14    -686.5973821201461078    -1.12e-06  1.36e-05  2.77e-03  9.55e-05     9.3
   15    -686.5973824364699567    -3.16e-07  1.23e-05  2.25e-03  7.93e-05     8.0
   16    -686.5973826111359131    -1.75e-07  1.13e-05  2.06e-03  2.80e-05    11.3
   17    -686.5973826614668951    -5.03e-08  8.40e-06  2.04e-03  1.28e-05    19.2
   18    -686.5973826842474637    -2.28e-08  7.61e-06  2.10e-03  1.10e-05     9.4
   19    -686.5973826962004978    -1.20e-08  1.59e-05  4.16e-03  4.74e-06     8.5
   20    -686.5973826884320488     7.77e-09  7.90e-06  1.66e-03  2.23e-06     9.6
                 **** Energy Check signals convergence ****

               *****************************************************
               *                     SUCCESS                       *
               *           SCF CONVERGED AFTER  20 CYCLES          *
               *****************************************************

Recomputing exchange energy using gridx3       ... done (   13.578 sec)
Old exchange energy                            :    -29.166942906 Eh
New exchange energy                            :    -29.166944798 Eh
Exchange energy change after final integration :     -0.000001892 Eh
Total energy after final integration           :   -686.597384581 Eh
             **** ENERGY FILE WAS UPDATED (TrpD-rotated-A.en.tmp) ****

----------------
TOTAL SCF ENERGY
----------------

Total Energy       :       -686.59738458091670 Eh          -18683.26467 eV

Components:
Nuclear Repulsion  :        966.35448041592952 Eh           26295.84227 eV
Electronic Energy  :      -1652.95186310436156 Eh          -44979.10689 eV
One Electron Energy:      -2833.00654788363772 Eh          -77090.02735 eV
Two Electron Energy:       1180.05468477927616 Eh           32110.92046 eV

Virial components:
Potential Energy   :      -1370.35442446506318 Eh          -37289.23964 eV
Kinetic Energy     :        683.75703988414648 Eh           18605.97496 eV
Virial Ratio       :          2.00415402625654

DFT components:
N(Alpha)           :       53.999928151239 electrons
N(Beta)            :       52.999928248006 electrons
N(Total)           :      106.999856399245 electrons
E(X)               :      -61.632805472636 Eh       
E(C)               :       -4.505080788702 Eh       
E(XC)              :      -66.137886261338 Eh       

---------------
SCF CONVERGENCE
---------------

  Last Energy change         ...   -7.7684e-09  Tolerance :   1.0000e-08
  Last MAX-Density change    ...    1.6634e-03  Tolerance :   1.0000e-07
  Last RMS-Density change    ...    7.8955e-06  Tolerance :   5.0000e-09
  Last DIIS Error            ...    1.8438e-03  Tolerance :   5.0000e-07
  Last Orbital Gradient      ...    2.2333e-06  Tolerance :   1.0000e-05
  Last Orbital Rotation      ...    1.3141e-05  Tolerance :   1.0000e-05


----------------------
UHF SPIN CONTAMINATION
----------------------

Warning: in a DFT calculation there is little theoretical justification to 
         calculate <S**2> as in Hartree-Fock theory. We will do it anyways
         but you should keep in mind that the values have only limited relevance

Expectation value of <S**2>     :     0.781658
Ideal value S*(S+1) for S=0.5   :     0.750000
Deviation                       :     0.031658

----------------
ORBITAL ENERGIES
----------------
                 SPIN UP ORBITALS
  NO   OCC          E(Eh)            E(eV) 
   0   1.0000     -19.392101      -527.6859 
   1   1.0000     -19.334484      -526.1181 
   2   1.0000     -14.659164      -398.8961 
   3   1.0000     -14.518801      -395.0767 
   4   1.0000     -10.540515      -286.8220 
   5   1.0000     -10.520367      -286.2737 
   6   1.0000     -10.490660      -285.4654 
   7   1.0000     -10.486244      -285.3452 
   8   1.0000     -10.461952      -284.6842 
   9   1.0000     -10.453702      -284.4597 
  10   1.0000     -10.449244      -284.3384 
  11   1.0000     -10.448405      -284.3156 
  12   1.0000     -10.447902      -284.3019 
  13   1.0000     -10.430812      -283.8368 
  14   1.0000     -10.429948      -283.8133 
  15   1.0000      -1.377440       -37.4820 
  16   1.0000      -1.321618       -35.9631 
  17   1.0000      -1.283849       -34.9353 
  18   1.0000      -1.167210       -31.7614 
  19   1.0000      -1.159556       -31.5531 
  20   1.0000      -1.120411       -30.4879 
  21   1.0000      -1.052377       -28.6366 
  22   1.0000      -1.043307       -28.3898 
  23   1.0000      -1.015644       -27.6371 
  24   1.0000      -0.952962       -25.9314 
  25   1.0000      -0.927245       -25.2316 
  26   1.0000      -0.897738       -24.4287 
  27   1.0000      -0.874435       -23.7946 
  28   1.0000      -0.845962       -23.0198 
  29   1.0000      -0.834718       -22.7138 
  30   1.0000      -0.783689       -21.3253 
  31   1.0000      -0.768857       -20.9217 
  32   1.0000      -0.758485       -20.6394 
  33   1.0000      -0.750687       -20.4272 
  34   1.0000      -0.744382       -20.2557 
  35   1.0000      -0.740300       -20.1446 
  36   1.0000      -0.720999       -19.6194 
  37   1.0000      -0.714490       -19.4423 
  38   1.0000      -0.697256       -18.9733 
  39   1.0000      -0.692197       -18.8356 
  40   1.0000      -0.681064       -18.5327 
  41   1.0000      -0.655768       -17.8444 
  42   1.0000      -0.646327       -17.5875 
  43   1.0000      -0.640922       -17.4404 
  44   1.0000      -0.635144       -17.2831 
  45   1.0000      -0.628200       -17.0942 
  46   1.0000      -0.616700       -16.7813 
  47   1.0000      -0.607024       -16.5180 
  48   1.0000      -0.564986       -15.3741 
  49   1.0000      -0.559294       -15.2192 
  50   1.0000      -0.522579       -14.2201 
  51   1.0000      -0.501220       -13.6389 
  52   1.0000      -0.481110       -13.0917 
  53   1.0000      -0.469991       -12.7891 
  54   0.0000      -0.127121        -3.4591 
  55   0.0000      -0.077202        -2.1008 
  56   0.0000      -0.075530        -2.0553 
  57   0.0000      -0.066350        -1.8055 
  58   0.0000      -0.054008        -1.4696 
  59   0.0000      -0.052087        -1.4174 
  60   0.0000      -0.050135        -1.3643 
  61   0.0000      -0.043185        -1.1751 
  62   0.0000      -0.040286        -1.0962 
  63   0.0000      -0.036701        -0.9987 
  64   0.0000      -0.030894        -0.8407 

                 SPIN DOWN ORBITALS
  NO   OCC          E(Eh)            E(eV) 
   0   1.0000     -19.392036      -527.6841 
   1   1.0000     -19.334058      -526.1065 
   2   1.0000     -14.657231      -398.8435 
   3   1.0000     -14.518781      -395.0761 
   4   1.0000     -10.540564      -286.8233 
   5   1.0000     -10.517931      -286.2074 
   6   1.0000     -10.489410      -285.4313 
   7   1.0000     -10.481694      -285.2214 
   8   1.0000     -10.461419      -284.6697 
   9   1.0000     -10.451171      -284.3908 
  10   1.0000     -10.449256      -284.3387 
  11   1.0000     -10.449028      -284.3325 
  12   1.0000     -10.446732      -284.2700 
  13   1.0000     -10.431216      -283.8478 
  14   1.0000     -10.431021      -283.8425 
  15   1.0000      -1.377094       -37.4726 
  16   1.0000      -1.314967       -35.7821 
  17   1.0000      -1.283143       -34.9161 
  18   1.0000      -1.165324       -31.7101 
  19   1.0000      -1.157149       -31.4876 
  20   1.0000      -1.110862       -30.2281 
  21   1.0000      -1.049952       -28.5707 
  22   1.0000      -1.038915       -28.2703 
  23   1.0000      -1.007318       -27.4105 
  24   1.0000      -0.951474       -25.8909 
  25   1.0000      -0.924535       -25.1579 
  26   1.0000      -0.894134       -24.3306 
  27   1.0000      -0.869924       -23.6718 
  28   1.0000      -0.843996       -22.9663 
  29   1.0000      -0.831394       -22.6234 
  30   1.0000      -0.781086       -21.2544 
  31   1.0000      -0.766651       -20.8616 
  32   1.0000      -0.757046       -20.6003 
  33   1.0000      -0.746395       -20.3104 
  34   1.0000      -0.739923       -20.1343 
  35   1.0000      -0.724948       -19.7268 
  36   1.0000      -0.719246       -19.5717 
  37   1.0000      -0.713179       -19.4066 
  38   1.0000      -0.695551       -18.9269 
  39   1.0000      -0.689712       -18.7680 
  40   1.0000      -0.678530       -18.4637 
  41   1.0000      -0.652948       -17.7676 
  42   1.0000      -0.643516       -17.5110 
  43   1.0000      -0.635795       -17.3009 
  44   1.0000      -0.626424       -17.0459 
  45   1.0000      -0.618255       -16.8236 
  46   1.0000      -0.614535       -16.7223 
  47   1.0000      -0.605428       -16.4745 
  48   1.0000      -0.562650       -15.3105 
  49   1.0000      -0.532294       -14.4845 
  50   1.0000      -0.513649       -13.9771 
  51   1.0000      -0.498351       -13.5608 
  52   1.0000      -0.477341       -12.9891 
  53   0.0000      -0.242767        -6.6060 
  54   0.0000      -0.099607        -2.7104 
  55   0.0000      -0.076617        -2.0849 
  56   0.0000      -0.066128        -1.7994 
  57   0.0000      -0.061562        -1.6752 
  58   0.0000      -0.053041        -1.4433 
  59   0.0000      -0.049663        -1.3514 
  60   0.0000      -0.043230        -1.1763 
  61   0.0000      -0.042027        -1.1436 
  62   0.0000      -0.036632        -0.9968 
  63   0.0000      -0.032070        -0.8727 
*Only the first 10 virtual orbitals were printed.

                    ********************************
                    * MULLIKEN POPULATION ANALYSIS *
                    ********************************

--------------------------------------------
MULLIKEN ATOMIC CHARGES AND SPIN POPULATIONS
--------------------------------------------
   0 N :   -0.534581    0.003040
   1 C :    0.240148    0.030155
   2 C :    0.275545   -0.002006
   3 O :   -0.335437    0.010374
   4 C :   -0.592274   -0.005584
   5 C :   -0.102964    0.380428
   6 C :   -0.140913    0.222164
   7 C :    0.227584   -0.086867
   8 N :   -0.131985    0.096306
   9 C :    0.017212    0.070993
  10 C :   -0.156972    0.226367
  11 C :    0.072351   -0.040824
  12 C :    0.048742   -0.110292
  13 C :    0.094631    0.206515
  14 O :   -0.363157    0.001773
  15 H :    0.372678   -0.000228
  16 H :    0.270058    0.000889
  17 H :    0.245199   -0.000155
  18 H :    0.103166   -0.002211
  19 H :    0.194615    0.000672
  20 H :    0.187865    0.018181
  21 H :    0.175077   -0.006312
  22 H :    0.275132   -0.001904
  23 H :    0.123293   -0.009502
  24 H :    0.128296    0.002555
  25 H :    0.149220    0.004447
  26 H :    0.157471   -0.008972
Sum of atomic charges         :    1.0000000
Sum of atomic spin populations:    1.0000000

-----------------------------------------------------
MULLIKEN REDUCED ORBITAL CHARGES AND SPIN POPULATIONS
-----------------------------------------------------
CHARGE
  0 N s       :     3.539333  s :     3.539333
      pz      :     1.239350  p :     3.949237
      px      :     1.332122
      py      :     1.377766
      dz2     :     0.015512  d :     0.043161
      dxz     :     0.006064
      dyz     :     0.007943
      dx2y2   :     0.011141
      dxy     :     0.002502
      f0      :     0.000540  f :     0.002849
      f+1     :     0.000749
      f-1     :     0.000359
      f+2     :     0.000395
      f-2     :     0.000261
      f+3     :     0.000060
      f-3     :     0.000484

  1 C s       :     2.928916  s :     2.928916
      pz      :     0.849108  p :     2.655739
      px      :     0.916214
      py      :     0.890418
      dz2     :     0.039193  d :     0.166323
      dxz     :     0.035228
      dyz     :     0.041730
      dx2y2   :     0.020904
      dxy     :     0.029268
      f0      :     0.001919  f :     0.008874
      f+1     :     0.001385
      f-1     :     0.001584
      f+2     :     0.000885
      f-2     :     0.000993
      f+3     :     0.000977
      f-3     :     0.001131

  2 C s       :     3.093282  s :     3.093282
      pz      :     0.714829  p :     2.316989
      px      :     0.819024
      py      :     0.783136
      dz2     :     0.074583  d :     0.290679
      dxz     :     0.035804
      dyz     :     0.055983
      dx2y2   :     0.055312
      dxy     :     0.068997
      f0      :     0.002637  f :     0.023505
      f+1     :     0.003072
      f-1     :     0.003693
      f+2     :     0.003555
      f-2     :     0.004803
      f+3     :     0.003272
      f-3     :     0.002473

  3 O s       :     3.849116  s :     3.849116
      pz      :     1.361550  p :     4.454661
      px      :     1.408529
      py      :     1.684582
      dz2     :     0.008564  d :     0.029767
      dxz     :     0.007407
      dyz     :     0.004122
      dx2y2   :     0.004893
      dxy     :     0.004781
      f0      :     0.000274  f :     0.001893
      f+1     :     0.000493
      f-1     :     0.000100
      f+2     :     0.000337
      f-2     :     0.000345
      f+3     :     0.000157
      f-3     :     0.000186

  4 C s       :     3.655750  s :     3.655750
      pz      :     0.813047  p :     2.833782
      px      :     1.075461
      py      :     0.945274
      dz2     :     0.020040  d :     0.098119
      dxz     :     0.021366
      dyz     :     0.024465
      dx2y2   :     0.012910
      dxy     :     0.019339
      f0      :     0.001221  f :     0.004624
      f+1     :     0.000647
      f-1     :     0.000787
      f+2     :     0.000285
      f-2     :     0.000292
      f+3     :     0.000780
      f-3     :     0.000610

  5 C s       :     3.119636  s :     3.119636
      pz      :     0.878814  p :     2.829035
      px      :     1.105835
      py      :     0.844386
      dz2     :     0.031071  d :     0.145853
      dxz     :     0.052168
      dyz     :     0.030079
      dx2y2   :     0.010990
      dxy     :     0.021545
      f0      :     0.001398  f :     0.008440
      f+1     :     0.002555
      f-1     :     0.001112
      f+2     :     0.000941
      f-2     :     0.001049
      f+3     :     0.000563
      f-3     :     0.000821

  6 C s       :     3.442732  s :     3.442732
      pz      :     0.779369  p :     2.566837
      px      :     1.005475
      py      :     0.781992
      dz2     :     0.028453  d :     0.120534
      dxz     :     0.031115
      dyz     :     0.035030
      dx2y2   :     0.014196
      dxy     :     0.011740
      f0      :     0.002130  f :     0.010811
      f+1     :     0.002497
      f-1     :     0.002089
      f+2     :     0.001255
      f-2     :     0.001003
      f+3     :     0.001039
      f-3     :     0.000798

  7 C s       :     2.916871  s :     2.916871
      pz      :     0.980189  p :     2.717412
      px      :     0.750782
      py      :     0.986441
      dz2     :     0.028686  d :     0.128708
      dxz     :     0.038735
      dyz     :     0.018994
      dx2y2   :     0.016581
      dxy     :     0.025713
      f0      :     0.001379  f :     0.009425
      f+1     :     0.001824
      f-1     :     0.000952
      f+2     :     0.001550
      f-2     :     0.000614
      f+3     :     0.001143
      f-3     :     0.001962

  8 N s       :     3.404525  s :     3.404525
      pz      :     1.083715  p :     3.654463
      px      :     1.120909
      py      :     1.449840
      dz2     :     0.014850  d :     0.067603
      dxz     :     0.022110
      dyz     :     0.010271
      dx2y2   :     0.008515
      dxy     :     0.011858
      f0      :     0.001068  f :     0.005393
      f+1     :     0.001024
      f-1     :     0.001019
      f+2     :     0.000845
      f-2     :     0.000043
      f+3     :     0.000667
      f-3     :     0.000727

  9 C s       :     3.043432  s :     3.043432
      pz      :     1.099604  p :     2.775621
      px      :     0.714682
      py      :     0.961335
      dz2     :     0.034617  d :     0.151265
      dxz     :     0.034063
      dyz     :     0.029839
      dx2y2   :     0.020633
      dxy     :     0.032113
      f0      :     0.002506  f :     0.012469
      f+1     :     0.001825
      f-1     :     0.001717
      f+2     :     0.001826
      f-2     :     0.000834
      f+3     :     0.001660
      f-3     :     0.002102

 10 C s       :     3.348581  s :     3.348581
      pz      :     0.924651  p :     2.706981
      px      :     0.903648
      py      :     0.878682
      dz2     :     0.026743  d :     0.094759
      dxz     :     0.024381
      dyz     :     0.009638
      dx2y2   :     0.011348
      dxy     :     0.022649
      f0      :     0.001281  f :     0.006651
      f+1     :     0.001266
      f-1     :     0.000586
      f+2     :     0.001009
      f-2     :     0.000503
      f+3     :     0.000699
      f-3     :     0.001306

 11 C s       :     3.116434  s :     3.116434
      pz      :     0.906481  p :     2.715625
      px      :     0.869787
      py      :     0.939357
      dz2     :     0.021771  d :     0.088796
      dxz     :     0.029451
      dyz     :     0.009653
      dx2y2   :     0.008958
      dxy     :     0.018963
      f0      :     0.001252  f :     0.006795
      f+1     :     0.001275
      f-1     :     0.000582
      f+2     :     0.001089
      f-2     :     0.000543
      f+3     :     0.000704
      f-3     :     0.001351

 12 C s       :     3.108522  s :     3.108522
      pz      :     0.859180  p :     2.749398
      px      :     0.942720
      py      :     0.947498
      dz2     :     0.021184  d :     0.086456
      dxz     :     0.026166
      dyz     :     0.017801
      dx2y2   :     0.013627
      dxy     :     0.007677
      f0      :     0.001409  f :     0.006882
      f+1     :     0.001316
      f-1     :     0.001215
      f+2     :     0.000941
      f-2     :     0.000689
      f+3     :     0.000820
      f-3     :     0.000492

 13 C s       :     3.119881  s :     3.119881
      pz      :     0.951761  p :     2.687782
      px      :     0.880573
      py      :     0.855448
      dz2     :     0.021187  d :     0.090874
      dxz     :     0.027940
      dyz     :     0.013385
      dx2y2   :     0.010725
      dxy     :     0.017637
      f0      :     0.001168  f :     0.006833
      f+1     :     0.001365
      f-1     :     0.000926
      f+2     :     0.001144
      f-2     :     0.000238
      f+3     :     0.000695
      f-3     :     0.001298

 14 O s       :     3.778367  s :     3.778367
      pz      :     1.625627  p :     4.552221
      px      :     1.566545
      py      :     1.360049
      dz2     :     0.006329  d :     0.030855
      dxz     :     0.004199
      dyz     :     0.007920
      dx2y2   :     0.004460
      dxy     :     0.007946
      f0      :     0.000189  f :     0.001713
      f+1     :     0.000093
      f-1     :     0.000326
      f+2     :     0.000263
      f-2     :     0.000294
      f+3     :     0.000141
      f-3     :     0.000408

 15 H s       :     0.572671  s :     0.572671
      pz      :     0.020202  p :     0.054650
      px      :     0.018852
      py      :     0.015596

 16 H s       :     0.682686  s :     0.682686
      pz      :     0.014128  p :     0.047256
      px      :     0.014170
      py      :     0.018959

 17 H s       :     0.709169  s :     0.709169
      pz      :     0.012558  p :     0.045632
      px      :     0.017566
      py      :     0.015508

 18 H s       :     0.869690  s :     0.869690
      pz      :     0.009714  p :     0.027144
      px      :     0.010363
      py      :     0.007067

 19 H s       :     0.776658  s :     0.776658
      pz      :     0.007923  p :     0.028727
      px      :     0.013315
      py      :     0.007488

 20 H s       :     0.784581  s :     0.784581
      pz      :     0.008547  p :     0.027554
      px      :     0.009514
      py      :     0.009493

 21 H s       :     0.796578  s :     0.796578
      pz      :     0.006142  p :     0.028346
      px      :     0.015757
      py      :     0.006446

 22 H s       :     0.683823  s :     0.683823
      pz      :     0.012427  p :     0.041045
      px      :     0.011243
      py      :     0.017375

 23 H s       :     0.848664  s :     0.848664
      pz      :     0.012542  p :     0.028043
      px      :     0.007099
      py      :     0.008401

 24 H s       :     0.843400  s :     0.843400
      pz      :     0.013234  p :     0.028304
      px      :     0.006179
      py      :     0.008892

 25 H s       :     0.823651  s :     0.823651
      pz      :     0.005506  p :     0.027129
      px      :     0.012602
      py      :     0.009021

 26 H s       :     0.816118  s :     0.816118
      pz      :     0.009935  p :     0.026410
      px      :     0.008433
      py      :     0.008042


SPIN
  0 N s       :     0.001284  s :     0.001284
      pz      :    -0.001117  p :     0.001471
      px      :     0.000909
      py      :     0.001679
      dz2     :     0.000011  d :     0.000266
      dxz     :     0.000007
      dyz     :     0.000204
      dx2y2   :    -0.000012
      dxy     :     0.000056
      f0      :     0.000001  f :     0.000019
      f+1     :     0.000001
      f-1     :     0.000012
      f+2     :     0.000001
      f-2     :     0.000003
      f+3     :    -0.000000
      f-3     :     0.000001

  1 C s       :     0.006922  s :     0.006922
      pz      :     0.000874  p :     0.023176
      px      :     0.001665
      py      :     0.020637
      dz2     :     0.000396  d :     0.000055
      dxz     :    -0.000033
      dyz     :    -0.000189
      dx2y2   :     0.000019
      dxy     :    -0.000137
      f0      :    -0.000004  f :     0.000002
      f+1     :    -0.000003
      f-1     :     0.000012
      f+2     :    -0.000004
      f-2     :    -0.000004
      f+3     :     0.000010
      f-3     :    -0.000005

  2 C s       :    -0.002262  s :    -0.002262
      pz      :    -0.000116  p :    -0.001027
      px      :    -0.001095
      py      :     0.000184
      dz2     :     0.000030  d :     0.001254
      dxz     :    -0.000015
      dyz     :     0.000140
      dx2y2   :     0.001049
      dxy     :     0.000050
      f0      :     0.000009  f :     0.000030
      f+1     :     0.000011
      f-1     :     0.000001
      f+2     :     0.000000
      f-2     :     0.000008
      f+3     :    -0.000000
      f-3     :     0.000001

  3 O s       :    -0.000587  s :    -0.000587
      pz      :     0.005375  p :     0.010929
      px      :     0.002659
      py      :     0.002895
      dz2     :    -0.000017  d :     0.000036
      dxz     :     0.000006
      dyz     :     0.000044
      dx2y2   :     0.000006
      dxy     :    -0.000003
      f0      :     0.000000  f :    -0.000005
      f+1     :    -0.000003
      f-1     :     0.000001
      f+2     :    -0.000002
      f-2     :     0.000000
      f+3     :    -0.000000
      f-3     :    -0.000001

  4 C s       :     0.008110  s :     0.008110
      pz      :    -0.010039  p :    -0.023250
      px      :    -0.003239
      py      :    -0.009972
      dz2     :     0.000928  d :     0.009165
      dxz     :     0.000260
      dyz     :     0.006811
      dx2y2   :     0.000759
      dxy     :     0.000408
      f0      :     0.000065  f :     0.000390
      f+1     :     0.000017
      f-1     :     0.000284
      f+2     :     0.000006
      f-2     :     0.000007
      f+3     :     0.000007
      f-3     :     0.000004

  5 C s       :     0.030779  s :     0.030779
      pz      :     0.005602  p :     0.343282
      px      :     0.009305
      py      :     0.328375
      dz2     :     0.000797  d :     0.006768
      dxz     :     0.001308
      dyz     :     0.001191
      dx2y2   :    -0.000691
      dxy     :     0.004163
      f0      :    -0.000054  f :    -0.000400
      f+1     :    -0.000018
      f-1     :    -0.000127
      f+2     :    -0.000145
      f-2     :     0.000115
      f+3     :    -0.000165
      f-3     :    -0.000006

  6 C s       :     0.008145  s :     0.008145
      pz      :    -0.003180  p :     0.204144
      px      :     0.003037
      py      :     0.204287
      dz2     :     0.000099  d :     0.009565
      dxz     :     0.001096
      dyz     :     0.007132
      dx2y2   :    -0.000912
      dxy     :     0.002151
      f0      :    -0.000001  f :     0.000310
      f+1     :     0.000001
      f-1     :    -0.000072
      f+2     :    -0.000113
      f-2     :     0.000416
      f+3     :    -0.000135
      f-3     :     0.000213

  7 C s       :    -0.022976  s :    -0.022976
      pz      :    -0.006474  p :    -0.077815
      px      :     0.015606
      py      :    -0.086947
      dz2     :     0.000093  d :     0.013168
      dxz     :     0.000225
      dyz     :     0.003647
      dx2y2   :     0.000114
      dxy     :     0.009088
      f0      :     0.000016  f :     0.000756
      f+1     :     0.000047
      f-1     :     0.000082
      f+2     :     0.000043
      f-2     :     0.000395
      f+3     :     0.000025
      f-3     :     0.000148

  8 N s       :    -0.002208  s :    -0.002208
      pz      :    -0.000798  p :     0.094187
      px      :    -0.001118
      py      :     0.096103
      dz2     :     0.000123  d :     0.004272
      dxz     :     0.000100
      dyz     :     0.002281
      dx2y2   :    -0.000251
      dxy     :     0.002018
      f0      :    -0.000010  f :     0.000055
      f+1     :     0.000010
      f-1     :     0.000024
      f+2     :    -0.000034
      f-2     :     0.000012
      f+3     :    -0.000051
      f-3     :     0.000102

  9 C s       :    -0.002369  s :    -0.002369
      pz      :    -0.009456  p :     0.076896
      px      :     0.000051
      py      :     0.086301
      dz2     :     0.000177  d :    -0.003459
      dxz     :    -0.000069
      dyz     :    -0.004874
      dx2y2   :    -0.000103
      dxy     :     0.001409
      f0      :    -0.000032  f :    -0.000075
      f+1     :     0.000004
      f-1     :    -0.000079
      f+2     :    -0.000030
      f-2     :     0.000004
      f+3     :    -0.000078
      f-3     :     0.000138

 10 C s       :     0.009740  s :     0.009740
      pz      :     0.009657  p :     0.221143
      px      :     0.012925
      py      :     0.198562
      dz2     :    -0.000034  d :    -0.004036
      dxz     :    -0.000211
      dyz     :    -0.001055
      dx2y2   :    -0.000548
      dxy     :    -0.002187
      f0      :    -0.000050  f :    -0.000481
      f+1     :    -0.000015
      f-1     :    -0.000067
      f+2     :    -0.000080
      f-2     :    -0.000046
      f+3     :    -0.000104
      f-3     :    -0.000119

 11 C s       :    -0.006587  s :    -0.006587
      pz      :    -0.003039  p :    -0.041631
      px      :    -0.008576
      py      :    -0.030016
      dz2     :     0.000592  d :     0.007070
      dxz     :     0.000029
      dyz     :     0.000269
      dx2y2   :     0.000232
      dxy     :     0.005948
      f0      :     0.000012  f :     0.000324
      f+1     :     0.000019
      f-1     :     0.000003
      f+2     :     0.000019
      f-2     :     0.000086
      f+3     :    -0.000004
      f-3     :     0.000188

 12 C s       :    -0.013388  s :    -0.013388
      pz      :    -0.009888  p :    -0.106756
      px      :    -0.004427
      py      :    -0.092442
      dz2     :     0.000487  d :     0.009289
      dxz     :     0.000197
      dyz     :     0.007744
      dx2y2   :     0.000279
      dxy     :     0.000581
      f0      :     0.000035  f :     0.000563
      f+1     :     0.000024
      f-1     :     0.000115
      f+2     :     0.000024
      f-2     :     0.000283
      f+3     :     0.000044
      f-3     :     0.000039

 13 C s       :     0.011885  s :     0.011885
      pz      :     0.006935  p :     0.197383
      px      :     0.003841
      py      :     0.186608
      dz2     :    -0.000012  d :    -0.002362
      dxz     :     0.000249
      dyz     :    -0.001431
      dx2y2   :    -0.000555
      dxy     :    -0.000613
      f0      :    -0.000035  f :    -0.000391
      f+1     :    -0.000009
      f-1     :    -0.000130
      f+2     :    -0.000084
      f-2     :    -0.000009
      f+3     :    -0.000102
      f-3     :    -0.000023

 14 O s       :     0.000125  s :     0.000125
      pz      :     0.001050  p :     0.001659
      px      :    -0.000054
      py      :     0.000663
      dz2     :     0.000003  d :    -0.000011
      dxz     :    -0.000004
      dyz     :    -0.000005
      dx2y2   :    -0.000002
      dxy     :    -0.000002
      f0      :    -0.000000  f :    -0.000000
      f+1     :    -0.000000
      f-1     :     0.000000
      f+2     :     0.000001
      f-2     :    -0.000000
      f+3     :    -0.000000
      f-3     :    -0.000000

 15 H s       :    -0.000224  s :    -0.000224
      pz      :    -0.000003  p :    -0.000003
      px      :     0.000001
      py      :    -0.000001

 16 H s       :     0.000872  s :     0.000872
      pz      :    -0.000027  p :     0.000017
      px      :     0.000040
      py      :     0.000004

 17 H s       :    -0.000190  s :    -0.000190
      pz      :    -0.000012  p :     0.000034
      px      :    -0.000000
      py      :     0.000047

 18 H s       :    -0.002462  s :    -0.002462
      pz      :    -0.000038  p :     0.000252
      px      :     0.000079
      py      :     0.000211

 19 H s       :     0.000812  s :     0.000812
      pz      :    -0.000078  p :    -0.000140
      px      :    -0.000044
      py      :    -0.000018

 20 H s       :     0.018498  s :     0.018498
      pz      :    -0.000265  p :    -0.000317
      px      :     0.000092
      py      :    -0.000144

 21 H s       :    -0.008262  s :    -0.008262
      pz      :    -0.000021  p :     0.001950
      px      :     0.000156
      py      :     0.001815

 22 H s       :    -0.003458  s :    -0.003458
      pz      :    -0.000085  p :     0.001555
      px      :    -0.000104
      py      :     0.001744

 23 H s       :    -0.011514  s :    -0.011514
      pz      :    -0.000023  p :     0.002012
      px      :     0.000010
      py      :     0.002025

 24 H s       :     0.002927  s :     0.002927
      pz      :     0.000016  p :    -0.000371
      px      :    -0.000031
      py      :    -0.000356

 25 H s       :     0.005419  s :     0.005419
      pz      :    -0.000079  p :    -0.000972
      px      :     0.000031
      py      :    -0.000925

 26 H s       :    -0.010784  s :    -0.010784
      pz      :    -0.000026  p :     0.001812
      px      :    -0.000052
      py      :     0.001891



                     *******************************
                     * LOEWDIN POPULATION ANALYSIS *
                     *******************************

-------------------------------------------
LOEWDIN ATOMIC CHARGES AND SPIN POPULATIONS
-------------------------------------------
   0 N :   -0.014451    0.001943
   1 C :   -0.220932    0.020442
   2 C :   -0.395082    0.000861
   3 O :    0.054785    0.013928
   4 C :   -0.134040    0.023404
   5 C :   -0.022855    0.292422
   6 C :    0.023981    0.209529
   7 C :   -0.112819   -0.018241
   8 N :    0.247439    0.101661
   9 C :   -0.106560    0.068375
  10 C :   -0.014679    0.150833
  11 C :   -0.040147   -0.001734
  12 C :   -0.073698   -0.041975
  13 C :   -0.020856    0.148011
  14 O :    0.164538    0.001731
  15 H :    0.123548    0.000205
  16 H :    0.099406    0.000670
  17 H :    0.091169    0.000072
  18 H :    0.148908    0.000138
  19 H :    0.156254    0.000326
  20 H :    0.154992    0.009637
  21 H :    0.161482    0.005159
  22 H :    0.160163    0.004951
  23 H :    0.144850    0.005984
  24 H :    0.144879   -0.001069
  25 H :    0.138612   -0.002879
  26 H :    0.141114    0.005615

----------------------------------------------------
LOEWDIN REDUCED ORBITAL CHARGES AND SPIN POPULATIONS
----------------------------------------------------
CHARGE
  0 N s       :     2.948695  s :     2.948695
      pz      :     1.277700  p :     3.926524
      px      :     1.305096
      py      :     1.343728
      dz2     :     0.041144  d :     0.128141
      dxz     :     0.021638
      dyz     :     0.025848
      dx2y2   :     0.030574
      dxy     :     0.008937
      f0      :     0.002686  f :     0.011091
      f+1     :     0.002793
      f-1     :     0.001770
      f+2     :     0.001237
      f-2     :     0.000765
      f+3     :     0.000405
      f-3     :     0.001436

  1 C s       :     2.657859  s :     2.657859
      pz      :     0.966172  p :     2.970187
      px      :     1.017535
      py      :     0.986480
      dz2     :     0.137301  d :     0.540482
      dxz     :     0.117950
      dyz     :     0.108462
      dx2y2   :     0.071037
      dxy     :     0.105731
      f0      :     0.010585  f :     0.052404
      f+1     :     0.006935
      f-1     :     0.010118
      f+2     :     0.006361
      f-2     :     0.006435
      f+3     :     0.005364
      f-3     :     0.006606

  2 C s       :     2.686021  s :     2.686021
      pz      :     0.851451  p :     2.681088
      px      :     0.947122
      py      :     0.882515
      dz2     :     0.187952  d :     0.900890
      dxz     :     0.152592
      dyz     :     0.198613
      dx2y2   :     0.173161
      dxy     :     0.188571
      f0      :     0.013605  f :     0.127083
      f+1     :     0.015553
      f-1     :     0.019887
      f+2     :     0.019226
      f-2     :     0.024752
      f+3     :     0.019446
      f-3     :     0.014614

  3 O s       :     3.350012  s :     3.350012
      pz      :     1.444288  p :     4.529529
      px      :     1.492177
      py      :     1.593063
      dz2     :     0.011154  d :     0.060336
      dxz     :     0.021810
      dyz     :     0.008614
      dx2y2   :     0.010545
      dxy     :     0.008213
      f0      :     0.000547  f :     0.005338
      f+1     :     0.001289
      f-1     :     0.000340
      f+2     :     0.001202
      f-2     :     0.001099
      f+3     :     0.000455
      f-3     :     0.000407

  4 C s       :     2.666854  s :     2.666854
      pz      :     1.004276  p :     3.091979
      px      :     1.081155
      py      :     1.006547
      dz2     :     0.083724  d :     0.345748
      dxz     :     0.065828
      dyz     :     0.074177
      dx2y2   :     0.055658
      dxy     :     0.066361
      f0      :     0.006037  f :     0.029459
      f+1     :     0.004107
      f-1     :     0.005247
      f+2     :     0.003177
      f-2     :     0.003786
      f+3     :     0.003897
      f-3     :     0.003207

  5 C s       :     2.666705  s :     2.666705
      pz      :     1.048165  p :     2.848245
      px      :     1.042126
      py      :     0.757954
      dz2     :     0.116828  d :     0.464951
      dxz     :     0.162433
      dyz     :     0.073437
      dx2y2   :     0.051962
      dxy     :     0.060290
      f0      :     0.005650  f :     0.042955
      f+1     :     0.015932
      f-1     :     0.004273
      f+2     :     0.005279
      f-2     :     0.006678
      f+3     :     0.002871
      f-3     :     0.002271

  6 C s       :     2.699005  s :     2.699005
      pz      :     0.972903  p :     2.787900
      px      :     1.073276
      py      :     0.741722
      dz2     :     0.127218  d :     0.435824
      dxz     :     0.127033
      dyz     :     0.098426
      dx2y2   :     0.057335
      dxy     :     0.025812
      f0      :     0.011507  f :     0.053290
      f+1     :     0.015307
      f-1     :     0.009436
      f+2     :     0.005868
      f-2     :     0.006197
      f+3     :     0.003165
      f-3     :     0.001809

  7 C s       :     2.629688  s :     2.629688
      pz      :     1.015136  p :     2.967819
      px      :     1.054152
      py      :     0.898532
      dz2     :     0.113067  d :     0.469386
      dxz     :     0.154448
      dyz     :     0.054864
      dx2y2   :     0.075867
      dxy     :     0.071139
      f0      :     0.008386  f :     0.045926
      f+1     :     0.011269
      f-1     :     0.004207
      f+2     :     0.007905
      f-2     :     0.004292
      f+3     :     0.004788
      f-3     :     0.005080

  8 N s       :     2.846551  s :     2.846551
      pz      :     1.215245  p :     3.665896
      px      :     1.174794
      py      :     1.275858
      dz2     :     0.054525  d :     0.219585
      dxz     :     0.083896
      dyz     :     0.023438
      dx2y2   :     0.026424
      dxy     :     0.031302
      f0      :     0.005662  f :     0.020528
      f+1     :     0.004067
      f-1     :     0.002942
      f+2     :     0.003122
      f-2     :     0.000421
      f+3     :     0.001933
      f-3     :     0.002381

  9 C s       :     2.639849  s :     2.639849
      pz      :     1.081951  p :     2.856006
      px      :     0.900245
      py      :     0.873809
      dz2     :     0.145214  d :     0.551193
      dxz     :     0.143002
      dyz     :     0.078479
      dx2y2   :     0.091288
      dxy     :     0.093211
      f0      :     0.013744  f :     0.059513
      f+1     :     0.009468
      f-1     :     0.006073
      f+2     :     0.009779
      f-2     :     0.004936
      f+3     :     0.006987
      f-3     :     0.008526

 10 C s       :     2.690366  s :     2.690366
      pz      :     1.072784  p :     2.934553
      px      :     1.057638
      py      :     0.804131
      dz2     :     0.099767  d :     0.357826
      dxz     :     0.114690
      dyz     :     0.023317
      dx2y2   :     0.054257
      dxy     :     0.065795
      f0      :     0.006997  f :     0.031934
      f+1     :     0.006038
      f-1     :     0.002083
      f+2     :     0.005901
      f-2     :     0.003489
      f+3     :     0.003455
      f-3     :     0.003972

 11 C s       :     2.687792  s :     2.687792
      pz      :     1.052671  p :     2.974330
      px      :     1.065598
      py      :     0.856061
      dz2     :     0.091076  d :     0.345710
      dxz     :     0.123085
      dyz     :     0.024853
      dx2y2   :     0.050290
      dxy     :     0.056406
      f0      :     0.006480  f :     0.032315
      f+1     :     0.006726
      f-1     :     0.002094
      f+2     :     0.006122
      f-2     :     0.003923
      f+3     :     0.003476
      f-3     :     0.003495

 12 C s       :     2.697944  s :     2.697944
      pz      :     1.075427  p :     2.995154
[...]

 -----------------------------------------------------------
 Nucleus  18H : A  : Isotope=    1 I=  0.5 P=533.5514 MHz/au**3 
                Q  : Isotope=    2 I=  1.0 Q=  0.0029 barn      
                HFC: iso  =YES dip=YES orb=YES gauge=YES    
                EFG: fgrad= NO rho= NO                      
 -----------------------------------------------------------

 Total HFC matrix (all values in MHz): 
 ----------------------------------------------------------------
                -2.6741              -2.2477               0.0282
                -2.2455              -1.7406              -1.6442
                 0.0289              -1.6455              -3.0045

 A(FC)          -2.4747              -2.4747              -2.4747
 A(SD)           3.0545              -0.4405              -2.6140
 A(ORB+DIA)      0.0022               0.0022               0.0005    A(PC) =    0.0016
 A(ORB)          0.0019               0.0018               0.0004    A(PC) =    0.0014
 A(DIA)          0.0003               0.0003               0.0001    A(PC) =    0.0002
             ----------           ----------           ----------
 A(Tot)          0.5821              -2.9130              -5.0882    A(iso)=   -2.4731
 Orientation: 
  X           0.5330563            0.6078718            0.5885090
  Y          -0.7676156            0.0549269            0.6385525
  Z           0.3558331           -0.7921332            0.4958910

Notes:  (1) The A matrix conforms to the "SAI" spin Hamiltonian convention.
        (2) Tensor is right-handed.

 -----------------------------------------------------------
 Nucleus  19H : A  : Isotope=    1 I=  0.5 P=533.5514 MHz/au**3 
                Q  : Isotope=    2 I=  1.0 Q=  0.0029 barn      
                HFC: iso  =YES dip=YES orb=YES gauge=YES    
                EFG: fgrad= NO rho= NO                      
 -----------------------------------------------------------

 Total HFC matrix (all values in MHz): 
 ----------------------------------------------------------------
                 1.7245               0.4280              -2.3046
                 0.4293               0.4574              -0.4012
                -2.3018              -0.4009               7.4781

 A(FC)           3.2199               3.2199               3.2199
 A(SD)          -2.9172              -2.1838               5.1010
 A(ORB+DIA)      0.0004              -0.0002               0.0001    A(PC) =    0.0001
 A(ORB)          0.0005              -0.0002              -0.0006    A(PC) =   -0.0001
 A(DIA)         -0.0001               0.0000               0.0006    A(PC) =    0.0002
             ----------           ----------           ----------
 A(Tot)          0.3031               1.0358               8.3210    A(iso)=    3.2200
 Orientation: 
  X           0.4021118            0.8529335           -0.3328822
  Y          -0.9122493            0.4042589           -0.0661502
  Z           0.0781489            0.3302714            0.9406453

Notes:  (1) The A matrix conforms to the "SAI" spin Hamiltonian convention.
        (2) Tensor is right-handed.

 -----------------------------------------------------------
 Nucleus  20H : A  : Isotope=    1 I=  0.5 P=533.5514 MHz/au**3 
                Q  : Isotope=    2 I=  1.0 Q=  0.0029 barn      
                HFC: iso  =YES dip=YES orb=YES gauge=YES    
                EFG: fgrad= NO rho= NO                      
 -----------------------------------------------------------

 Total HFC matrix (all values in MHz): 
 ----------------------------------------------------------------
                38.8376               0.8065               2.4222
                 0.8047              36.3749               1.0625
                 2.4182               1.0640              42.6519

 A(FC)          39.2870              39.2870              39.2870
 A(SD)          -3.1772              -1.5818               4.7590
 A(ORB+DIA)     -0.0004               0.0005               0.0034    A(PC) =    0.0012
 A(ORB)         -0.0003               0.0004               0.0029    A(PC) =    0.0010
 A(DIA)         -0.0001               0.0001               0.0005    A(PC) =    0.0002
             ----------           ----------           ----------
 A(Tot)         36.1094              37.7056              44.0494    A(iso)=   39.2881
 Orientation: 
  X           0.2194396            0.8724633            0.4366396
  Y          -0.9726064            0.1604437            0.1682099
  Z           0.0767009           -0.4615904            0.8837711

Notes:  (1) The A matrix conforms to the "SAI" spin Hamiltonian convention.
        (2) Tensor is right-handed.

 -----------------------------------------------------------
 Nucleus  21H : A  : Isotope=    1 I=  0.5 P=533.5514 MHz/au**3 
                Q  : Isotope=    2 I=  1.0 Q=  0.0029 barn      
                HFC: iso  =YES dip=YES orb=YES gauge=YES    
                EFG: fgrad= NO rho= NO                      
 -----------------------------------------------------------

 Total HFC matrix (all values in MHz): 
 ----------------------------------------------------------------
                -2.0752              -0.2108              -2.8049
                -0.2118             -18.6158               0.6958
                -2.7921               0.6955             -25.7616

 A(FC)         -15.4880             -15.4880             -15.4880
 A(SD)          13.7333              -3.0725             -10.6608
 A(ORB+DIA)      0.0107              -0.0013               0.0021    A(PC) =    0.0038
 A(ORB)          0.0089              -0.0002               0.0022    A(PC) =    0.0036
 A(DIA)          0.0018              -0.0011              -0.0000    A(PC) =    0.0002
             ----------           ----------           ----------
 A(Tot)         -1.7440             -18.5618             -26.1467    A(iso)=  -15.4842
 Orientation: 
  X          -0.9930456            0.0273002           -0.1145217
  Y           0.0172083            0.9959539            0.0882028
  Z           0.1164663            0.0856187           -0.9894974

Notes:  (1) The A matrix conforms to the "SAI" spin Hamiltonian convention.
        (2) Tensor is right-handed.

 -----------------------------------------------------------
 Nucleus  22H : A  : Isotope=    1 I=  0.5 P=533.5514 MHz/au**3 
                Q  : Isotope=    2 I=  1.0 Q=  0.0029 barn      
                HFC: iso  =YES dip=YES orb=YES gauge=YES    
                EFG: fgrad= NO rho= NO                      
 -----------------------------------------------------------

 Total HFC matrix (all values in MHz): 
 ----------------------------------------------------------------
               -10.3444              -0.6257               9.6178
                -0.6250             -12.6785              -0.4919
                 9.6103              -0.4916              -6.2672

 A(FC)          -9.7691              -9.7691              -9.7691
 A(SD)          11.3225              -2.9448              -8.3777
 A(ORB+DIA)      0.0109              -0.0011               0.0074    A(PC) =    0.0057
 A(ORB)          0.0090              -0.0001               0.0076    A(PC) =    0.0055
 A(DIA)          0.0018              -0.0010              -0.0001    A(PC) =    0.0002
             ----------           ----------           ----------
 A(Tot)          1.5643             -12.7151             -18.1394    A(iso)=   -9.7634
 Orientation: 
  X           0.6289886           -0.0090161            0.7773623
  Y          -0.0544188           -0.9979905            0.0324570
  Z           0.7755075           -0.0627182           -0.6282153

Notes:  (1) The A matrix conforms to the "SAI" spin Hamiltonian convention.
        (2) Tensor is right-handed.

 -----------------------------------------------------------
 Nucleus  23H : A  : Isotope=    1 I=  0.5 P=533.5514 MHz/au**3 
                Q  : Isotope=    2 I=  1.0 Q=  0.0029 barn      
                HFC: iso  =YES dip=YES orb=YES gauge=YES    
                EFG: fgrad= NO rho= NO                      
 -----------------------------------------------------------

 Total HFC matrix (all values in MHz): 
 ----------------------------------------------------------------
               -18.5626              -0.5344               6.4543
                -0.5351             -15.4008              -0.3988
                 6.4577              -0.3991              -8.6974

 A(FC)         -14.2222             -14.2222             -14.2222
 A(SD)           8.7526              -1.1994              -7.5532
 A(ORB+DIA)     -0.0001              -0.0004               0.0063    A(PC) =    0.0019
 A(ORB)         -0.0015               0.0001               0.0062    A(PC) =    0.0016
 A(DIA)          0.0014              -0.0005               0.0002    A(PC) =    0.0004
             ----------           ----------           ----------
 A(Tot)         -5.4697             -15.4220             -21.7691    A(iso)=  -14.2203
 Orientation: 
  X           0.4433630            0.0161939            0.8961959
  Y          -0.0597637           -0.9970778            0.0475828
  Z           0.8943476           -0.0746564           -0.4410996

Notes:  (1) The A matrix conforms to the "SAI" spin Hamiltonian convention.
        (2) Tensor is right-handed.

 -----------------------------------------------------------
 Nucleus  24H : A  : Isotope=    1 I=  0.5 P=533.5514 MHz/au**3 
                Q  : Isotope=    2 I=  1.0 Q=  0.0029 barn      
                HFC: iso  =YES dip=YES orb=YES gauge=YES    
                EFG: fgrad= NO rho= NO                      
 -----------------------------------------------------------

 Total HFC matrix (all values in MHz): 
 ----------------------------------------------------------------
                 4.2779               0.0074               0.2274
                 0.0077               0.0664              -0.1538
                 0.2249              -0.1539               2.1459

 A(FC)           2.1647               2.1647               2.1647
 A(SD)          -2.1098              -0.0269               2.1367
 A(ORB+DIA)      0.0000              -0.0041               0.0003    A(PC) =   -0.0013
 A(ORB)         -0.0001              -0.0045               0.0001    A(PC) =   -0.0015
 A(DIA)          0.0001               0.0004               0.0001    A(PC) =    0.0002
             ----------           ----------           ----------
 A(Tot)          0.0549               2.1336               4.3017    A(iso)=    2.1634
 Orientation: 
  X          -0.0057397           -0.1049181            0.9944643
  Y           0.9972423           -0.0741857           -0.0020710
  Z           0.0739923            0.9917100            0.1050545

Notes:  (1) The A matrix conforms to the "SAI" spin Hamiltonian convention.
        (2) Tensor is right-handed.

 -----------------------------------------------------------
 Nucleus  25H : A  : Isotope=    1 I=  0.5 P=533.5514 MHz/au**3 
                Q  : Isotope=    2 I=  1.0 Q=  0.0029 barn      
                HFC: iso  =YES dip=YES orb=YES gauge=YES    
                EFG: fgrad= NO rho= NO                      
 -----------------------------------------------------------

 Total HFC matrix (all values in MHz): 
 ----------------------------------------------------------------
                 4.7771               0.0913              -1.3333
                 0.0910               3.8384              -0.4162
                -1.3344              -0.4163               8.8695

 A(FC)           5.8285               5.8285               5.8285
 A(SD)          -2.0250              -1.4477               3.4727
 A(ORB+DIA)      0.0002               0.0016              -0.0023    A(PC) =   -0.0001
 A(ORB)         -0.0002               0.0016              -0.0025    A(PC) =   -0.0004
 A(DIA)          0.0004              -0.0000               0.0003    A(PC) =    0.0002
             ----------           ----------           ----------
 A(Tot)          3.8037               4.3824               9.2989    A(iso)=    5.8283
 Orientation: 
  X          -0.0291324            0.9585535           -0.2834194
  Y          -0.9955654           -0.0531973           -0.0775855
  Z          -0.0894470            0.2799023            0.9558525

Notes:  (1) The A matrix conforms to the "SAI" spin Hamiltonian convention.
        (2) Tensor is right-handed.

 -----------------------------------------------------------
 Nucleus  26H : A  : Isotope=    1 I=  0.5 P=533.5514 MHz/au**3 
                Q  : Isotope=    2 I=  1.0 Q=  0.0029 barn      
                HFC: iso  =YES dip=YES orb=YES gauge=YES    
                EFG: fgrad= NO rho= NO                      
 -----------------------------------------------------------

 Total HFC matrix (all values in MHz): 
 ----------------------------------------------------------------
               -13.6284               0.7907              -8.9965
                 0.7904             -13.9855              -0.0792
                -8.9957              -0.0797             -12.7764

 A(FC)         -13.4655             -13.4655             -13.4655
 A(SD)           9.3040              -0.5238              -8.7802
 A(ORB+DIA)      0.0024              -0.0009               0.0046    A(PC) =    0.0020
 A(ORB)          0.0012               0.0001               0.0048    A(PC) =    0.0020
 A(DIA)          0.0012              -0.0009              -0.0002    A(PC) =    0.0000
             ----------           ----------           ----------
 A(Tot)         -4.1592             -13.9901             -22.2411    A(iso)=  -13.4634
 Orientation: 
  X          -0.6901527            0.0030510           -0.7236573
  Y          -0.0613358            0.9961461            0.0626958
  Z           0.7210597            0.0876558           -0.6873058

Notes:  (1) The A matrix conforms to the "SAI" spin Hamiltonian convention.
        (2) Tensor is right-handed.


Hyperfine and quadrupole coupling calculation done in  29.8 sec 

Maximum memory used throughout the entire PROP-calculation: 151.1 MB

--------------------------------
SUGGESTED CITATIONS FOR THIS RUN
--------------------------------

Below you find a list of papers that are relevant to this ORCA run
We neither can nor want to force you to cite these papers, but we appreciate if you do
You receive ORCA, which is the product of decades of hard work by many enthusiastic individuals, for free
The only thing we kindly ask in return is that you cite our papers,
We deeply appreciate it, if you show your appreciation for ORCA by not just citing the generic ORCA reference.

Please note that relegating all ORCA citations to the supporting information does *not* help us.
SI sections are not indexed - citations you put there will not count into any citation statistics
But we need these citations in order to attract the funding resources that allow us to do what we are doing

Therefore, if you are a happy ORCA user, please consider citing a few of the papers listed below in the main body of your paper

In addition to the list printed below, the program has created the file TrpD-rotated-A.bibtex that contains the list in bibtex format
You can import this file easily into all common literature databanks and citation aid programs


List of essential papers. We consider these as the minimum necessary citations

  1. Neese,F.
     Software update: the ORCA program system, version 5.0
     WIRES Comput. Molec. Sci., 2022 12(1)e1606
     doi.org/10.1002/wcms.1606

List of papers to cite with high priority. The work reported in these papers was absolutely
necessary for this run to complete.
Our perspective: the developers of density functionals and basis sets usually get cited in chemistry papers
Good! But without the algorithms to do something with them, the functionals or basis sets would not do anything.
Hence, in our opinion, the algorithm design and method developments papers are equally worthy of getting cited

  1. Neese,F.
     An improvement of the resolution of the identity approximation for the formation of the Coulomb matrix
     J. Comp. Chem., 2003 24(14)1740-1747
     doi.org/10.1002/jcc.10318
  2. Neese,F.
     Metal and ligand hyperfine couplings in transition metal complexes: The effect of spin-orbit coupling as studied by coupled perturbed Kohn-Sham theory
     J. Chem. Phys., 2003 118(9)3939-3948
     doi.org/10.1063/1.1540619
  3. Neese,F.; Wennmohs,F.; Hansen,A.; Becker,U.
     Efficient, approximate and parallel Hartree-Fock and hybrid DFT calculations. A 'chain-of-spheres' algorithm for the Hartree-Fock exchange
     Chem. Phys., 2009 356(1-3)98-109
     doi.org/10.1016/j.chemphys.2008.10.036
  4. Helmich-Paris,B.; de Souza,B.; Neese,F.; Izsák,R.
     An improved chain of spheres for exchange algorithm
     J. Chem. Phys., 2021 155 104109
     doi.org/doi: 10.1063/5.0058766.
  5. Neese,F.
     The SHARK Integral Generation and Digestion System
     J. Comp. Chem., 2022  1-16
     doi.org/10.1002/jcc.26942
  6. Caldeweyher,E.; Bannwarth,C.; Grimme,S.
     Extension of the D3 dispersion coefficient model
     J. Chem. Phys., 2017 147 034112-XXXX
     doi.org/10.1063/1.4993215
  7. Caldeweyher,E.; Ehlert,S.; Hansen,A.; Neugebauer,H.; Spicher,S.; Bannwarth,C.; Grimme,S.
     A generally applicable atomic-charge dependent London dispersion correction
     J. Chem. Phys., 2019 150 154122-XXXX
     doi.org/10.1063/1.5090222
  8. Caldeweyher,E.; Mewes,J.; Ehlert,S.; Grimme,S.
     Extension and evaluation of the D4 London-dispersion model for periodic systems
     Phys. Chem. Chem. Phys., 2020 22(16)8499-8512
     doi.org/10.1039/D0CP00502A

List of suggested additional citations. These are papers that are important in the 'surrounding' of 
of this run, or papers that preceded the highly important papers. If you like your results we are grateful for a citation.

  1. Neese,F.
     Theoretical study of ligand superhyperfine structure. Application to Cu(II) complexes
     J. Phys. Chem. A, 2001 105(17)4290-4299
     doi.org/10.1021/jp003254f
  2. Izsak,R.; Neese,F.
     An overlap fitted chain of spheres exchange method
     J. Chem. Phys., 2011 135 144105
     doi.org/10.1063/1.3646921
  3. Izsak,R.; Hansen,A.; Neese,F.
     The resolution of identity and chain of spheres approximations for the LPNO-CCSD singles Fock term
     Molec. Phys., 2012 110 2413-2417
     doi.org/10.1080/00268976.2012.687466
  4. Neese,F.
     The ORCA program system
     WIRES Comput. Molec. Sci., 2012 2(1)73-78
     doi.org/10.1002/wcms.81
  5. Izsak,R.; Neese,F.; Klopper,W.
     Robust fitting techniques in the chain of spheres approximation to the Fock exchange: The role of the complementary space
     J. Chem. Phys., 2013 139 
     doi.org/10.1063/1.4819264
  6. Neese,F.
     Software update: the ORCA program system, version 4.0
     WIRES Comput. Molec. Sci., 2018 8(1)1-6
     doi.org/10.1002/wcms.1327
  7. Neese,F.; Wennmohs,F.; Becker,U.; Riplinger,C.
     The ORCA quantum chemistry program package
     J. Chem. Phys., 2020 152 Art. No. L224108
     doi.org/10.1063/5.0004608

List of optional additional citations

  1. Neese,F.
     Approximate second-order SCF convergence for spin unrestricted wavefunctions
     Chem. Phys. Lett., 2000 325(1-3)93-98
     doi.org/10.1016/s0009-2614(00)00662-x

Timings for individual modules:

Sum of individual times          ...      422.997 sec (=   7.050 min)
Startup calculation              ...        3.295 sec (=   0.055 min)   0.8 %
SCF iterations                   ...      189.456 sec (=   3.158 min)  44.8 %
Property integrals               ...       11.620 sec (=   0.194 min)   2.7 %
SCF Response                     ...      187.474 sec (=   3.125 min)  44.3 %
Property calculations            ...       31.152 sec (=   0.519 min)   7.4 %
                             ****ORCA TERMINATED NORMALLY****
TOTAL RUN TIME: 0 days 0 hours 7 minutes 4 seconds 218 msec
